# LAMMPS data file written by Ovito 3.0.0-dev422
2048 atoms
2 atom types
0.0 34.6392364 xlo xhi
0.0 34.6392364 ylo yhi
0.0 34.6392364 zlo zhi

Atoms  # atomic

1 1 6.5735455 7.1824293 10.1003437
2 1 13.044548 7.7385516 4.871161
3 1 1.7002987 3.1660044 6.9987674
4 1 13.901518 5.350935 13.1256867
5 1 1.1393789 9.9911022 4.4352389
6 1 5.297585 16.7554627 10.3620825
7 1 8.0843725 5.7100139 8.7282505
8 1 1.7927007 7.3608613 13.4349451
9 1 10.0163469 15.9375678 14.5517884
10 1 8.9894314 11.8951998 8.1103182
11 1 12.7581663 6.7661653 15.4214916
12 1 4.5089545 1.0404527 12.6233235
13 1 2.8259747 6.6472545 4.4337635
14 1 15.2805996 4.1631441 6.3799381
15 1 3.587162 13.9631128 11.5460339
16 1 6.9126102 7.3826985 16.448185
17 1 15.5862303 17.0962658 2.2007248
18 1 16.6186524 6.1816282 13.456625
19 1 16.5140648 2.2690978 11.2827749
20 1 10.445489 2.5496261 11.6754761
21 1 8.5268202 0.7403426 1.7959706
22 1 0.7857083 6.9411408 2.6143854
23 1 13.0796099 15.0838003 12.7858286
24 1 7.4122133 3.2340741 8.3487072
25 1 2.6159604 4.0128284 4.5059986
26 1 16.5834503 8.290246 16.6353474
27 1 16.8601532 3.4654484 8.378294
28 1 0.656367 4.3595142 16.243393
29 1 7.1694121 1.2860884 14.640729
30 1 7.8279543 3.8757582 15.1505785
31 1 5.1586976 4.3958697 4.0288782
32 1 12.7092123 11.9470568 17.0487213
33 1 10.4906483 1.2521552 15.274992
34 1 11.5598049 9.2820053 3.5670696
35 1 16.6027928 10.0044327 6.2827807
36 1 14.1264677 17.1694164 14.4994164
37 1 12.7420969 16.275507 4.9384252
38 1 9.3814917 5.3509536 11.2094755
39 1 3.8656236 17.1475086 5.6286745
40 1 16.0070076 3.1912663 17.0548916
41 1 6.6131935 5.1907587 6.2723036
42 1 5.6450243 3.6209295 1.4845802
43 1 7.4897704 5.3754249 3.501245
44 1 11.5103131 9.0261087 7.3577128
45 1 6.7577315 17.0226402 5.9517904
46 1 10.070405 5.3949747 2.1933603
47 1 14.8981352 16.1223183 16.6155453
48 1 12.6855965 17.2226219 10.5621948
49 1 10.3420086 3.2508612 5.5287032
50 1 1.4941089 6.861025 16.3594952
51 1 12.0349007 7.3391647 13.2299461
52 1 3.3273118 9.3031168 2.4552217
53 1 13.6950922 10.6198054 8.738348
54 1 13.2711935 10.3523626 1.9507606
55 1 8.5091486 8.5087567 7.6252513
56 1 1.1828508 12.5531817 10.5007344
57 1 7.1578922 10.9115678 12.1053152
58 1 7.8624126 7.2858734 5.3198991
59 1 13.2189226 0.8093746 3.2137931
60 1 11.095808 0.8622606 1.4824715
61 1 2.8575478 13.3934736 17.0827065
62 1 0.1105617 5.6116715 6.9738522
63 1 1.2092308 17.1050911 2.1501682
64 1 11.6878567 11.4524899 5.903874
65 1 0.3909522 15.338686 4.1440735
66 1 0.2318878 15.3143025 15.5742417
67 1 3.157747 10.6220608 17.0818443
68 1 13.7086115 3.0408409 1.3543874
69 1 10.8783208 6.5700412 4.4299989
70 1 12.6922074 5.3065934 2.5750873
71 1 8.5349055 11.7317267 0.0962726
72 1 4.8322354 2.8557106 14.7730437
73 1 9.1163597 1.0419179 9.7848139
74 1 1.7713651 3.496368 10.1020966
75 1 0.1136034 1.7961647 3.3917709
76 1 16.207428 8.8094836 1.9902748
77 1 12.8010445 14.9854804 7.0954556
78 1 8.7328406 0.5700788 12.2475176
79 1 3.6019631 2.2526505 0.7486397
80 1 4.8933458 12.1631908 12.7889986
81 1 2.7442882 14.7436972 5.9672256
82 1 1.7484132 14.8028574 1.5819049
83 1 9.5537377 15.4335737 1.8665986
84 1 7.964254 14.9227762 5.5515023
85 1 8.3262978 9.481061 15.6271744
86 1 16.7830315 14.8819448 11.374485
87 1 12.8650504 4.3674526 8.4491139
88 1 2.2343834 2.4304438 15.8934612
89 1 12.3529415 14.0616798 15.2525597
90 1 13.5699272 10.2223396 5.6948748
91 1 14.8311987 0.1303949 12.0851936
92 1 12.6706505 12.2189446 3.5281728
93 1 10.5701485 4.6340671 15.7742434
94 1 6.2777753 13.2962465 10.9239694
95 1 5.1804586 5.3620582 8.4966355
96 1 5.6910486 14.1843157 5.8182879
97 1 10.858781 4.984162 13.1371126
98 1 5.6810341 4.944293 16.2212868
99 1 13.3764534 7.4809914 8.2091026
100 1 1.7019532 1.3352702 5.1551609
101 1 11.2948008 8.8635988 15.4663182
102 1 15.0546179 2.1964545 4.0689211
103 1 0.3590607 1.6800033 0.9719004
104 1 2.5353692 0.3209512 14.1612854
105 1 7.1967263 9.8270178 9.8263006
106 1 12.7695399 4.834611 5.4433017
107 1 9.4613695 12.650261 5.5135165
108 1 11.7142287 2.0466263 8.9334536
109 1 15.8208103 12.7646017 9.494997
110 1 0.0211571 12.9958802 7.30479
111 1 5.8340683 11.5723553 5.6526122
112 1 2.5493942 8.2583304 6.3356104
113 1 9.0257187 16.8813458 17.0574341
114 1 12.373251 5.3981424 10.9570618
115 1 15.2255898 16.4389954 5.7170487
116 1 15.457881 5.8313875 16.3428555
117 1 16.3219032 14.414855 1.2483075
118 1 8.0916243 16.3213234 9.9911442
119 1 16.4471131 7.9016558 8.4889946
120 1 1.115818 16.6112385 6.4501453
121 1 6.4454398 9.7475786 0.5649609
122 1 15.1167727 5.3991761 1.6348518
123 1 14.3571177 12.4869471 7.2179155
124 1 10.2743521 14.3760643 17.1187286
125 1 17.2606163 7.6283045 5.1851444
126 1 4.0953507 11.6308527 10.3079329
127 1 16.9888 10.5797386 8.9856912
128 1 10.7788954 14.6835585 4.5053778
129 1 15.915722 15.2998572 13.5500984
130 1 6.2391577 1.2587558 3.8926304
131 1 14.4060278 0.0579498 8.3092957
132 1 8.906189 11.0511208 3.0336301
133 1 5.9818196 0.9334412 8.2261353
134 1 14.2056723 7.87108 11.2334776
135 1 3.2260871 15.760006 3.5696907
136 1 12.0623636 16.7220097 16.5732785
137 1 5.4852429 0.1910094 1.403418
138 1 8.5896492 5.6571946 0.0302186
139 1 5.5244532 7.1056871 4.468103
140 1 2.1052055 16.4056873 11.6055737
141 1 15.2528849 11.1635046 17.2351952
142 1 14.8740692 12.5247135 1.9583392
143 1 12.3031168 2.7866876 13.8982248
144 1 8.0348568 3.380959 12.3258667
145 1 8.7314768 16.3748608 7.5776305
146 1 6.2107511 12.7884398 16.6724339
147 1 7.239347 13.9343786 8.2774592
148 1 4.7742734 0.5250646 16.2433968
149 1 4.5476079 7.0345726 14.3342781
150 1 10.7805701 6.5154057 7.2293844
151 1 0.229297 7.8754808 10.9451714
152 1 17.0817528 0.5214597 16.0754604
153 1 6.3213573 9.8374129 3.3790455
154 1 8.3086195 8.3148394 11.7115536
155 1 7.0775309 1.9663026 17.2476502
156 1 13.7829724 3.9800358 15.7620001
157 1 10.6139755 13.6321383 13.4252119
158 1 5.4925957 11.8733444 1.7345832
159 1 10.7843571 12.6674385 1.7971009
160 1 3.4932966 17.0730743 8.2758227
161 1 10.8344937 15.9992276 11.381382
162 1 9.3772307 10.6984186 10.8752442
163 1 0.3681311 4.1716523 2.5382636
164 1 10.6165047 11.5754452 15.2901135
165 1 2.7649193 4.9650608 14.6191778
166 1 1.7612233 1.9368076 12.3794012
167 1 1.6875915 14.6825257 8.9373684
168 1 15.2420178 6.2751427 4.0217581
169 1 5.735795 5.2052107 13.25984
170 1 2.4330147 8.6861058 9.1709433
171 1 7.3169499 13.0808535 3.1270952
172 1 14.9097996 13.6363068 16.3236408
173 1 16.4471112 1.5571747 6.2624669
174 1 4.1136208 9.5197954 4.9566636
175 1 11.5710917 3.8629094 0.4786168
176 1 6.9656096 16.0147762 15.7108565
177 1 14.3630428 13.0577936 11.9983674
178 1 10.4990025 10.0558329 0.5726007
179 1 16.0365772 8.57158 13.7853537
180 1 14.7393408 2.5939639 9.22824
181 1 5.9820642 6.4135752 1.2603343
182 1 11.4975853 17.0107746 7.764237
183 1 9.2782002 9.8726978 5.122191
184 1 0.7311632 4.1538467 12.4344225
185 1 8.3182449 15.1831646 12.6108341
186 1 6.5305081 4.5602408 10.6842203
187 1 1.1902973 6.2266498 9.1042986
188 1 10.0263224 10.1028204 13.2992048
189 1 16.2335205 15.3189259 7.831111
190 1 11.5352373 11.4451742 9.4446869
191 1 16.289875 10.0146599 11.6622753
192 1 11.9528122 11.8227806 12.4333334
193 1 1.028963 12.5563956 15.1984587
194 1 14.081193 14.9983274 9.9246388
195 1 15.7261248 10.7207651 3.8814802
196 1 13.2424908 2.7328604 11.7023535
197 1 6.6977339 1.907763 10.5066576
198 1 6.2680993 8.7028132 13.275938
199 1 8.9493886 3.1607263 3.0954275
200 1 3.656972 2.2564392 3.3247166
201 1 6.1700988 16.5108166 13.1033945
202 1 17.0170078 12.099905 13.1482401
203 1 0.1183754 12.4793673 4.6751576
204 1 4.8025394 14.551837 1.6059982
205 1 14.8721524 13.7994681 4.609572
206 1 2.9586378 5.4525681 6.7906533
207 1 10.0858536 4.2742577 9.1888971
208 1 0.6737151 9.8615008 15.2102022
209 1 10.6525221 13.9424934 8.035656
210 1 9.1294165 13.6124907 10.2984457
211 1 13.9725666 0.7882902 0.4863057
212 1 9.1574316 2.7022341 0.1977123
213 1 13.5933914 9.1383801 16.6880951
214 1 13.8935146 7.771935 2.1735368
215 1 17.0206985 0.6384601 13.4176598
216 1 3.2239895 9.4542046 14.9246044
217 1 11.7470198 6.8827348 0.481251
218 1 1.6154288 8.5866184 0.8963836
219 1 6.6416054 15.8524972 3.4513688
220 1 11.4729014 2.9406574 3.3088412
221 1 14.9728012 8.0928803 6.238411
222 1 11.881158 13.7727995 10.4762917
223 1 4.217258 7.8017779 16.9152452
224 1 7.4389715 14.6909752 0.92062
225 1 1.4870831 14.1385212 12.7947512
226 1 3.8889216 3.5393582 12.3265381
227 1 3.9178774 11.9224424 15.2630024
228 1 11.4173813 0.4463115 12.9821626
229 1 7.6123991 3.0859108 5.2951799
230 1 3.9512434 1.7455311 10.0154915
231 1 4.4899016 14.3790455 8.6851654
232 1 4.5292583 2.7678213 6.5439611
233 1 3.0416873 5.1489248 1.0924172
234 1 3.2881057 12.7004957 3.6433847
235 1 4.1329498 15.0093946 15.1007214
236 1 8.8853026 6.9553028 14.3406563
237 2 2.0360615 10.4382983 12.2672854
238 2 12.9780998 1.9133988 6.2964664
239 2 12.9026242 14.9166002 2.0830557
240 2 5.7913447 8.7271519 7.3017345
241 2 3.3738246 6.4257012 11.1811848
242 2 9.6527968 0.5401752 4.6208487
243 2 0.5436381 0.4356851 9.4744053
244 2 2.9619356 11.3754969 7.179287
245 2 0.573116 11.5661974 1.2878336
246 2 15.867672 3.2090473 13.874465
247 2 13.9334354 10.9915724 14.3684683
248 2 15.9233542 5.0590382 10.4184322
249 2 11.1304522 8.2614689 10.210928
250 2 9.0374355 8.0369053 2.2574794
251 2 7.8076139 13.0827808 14.415164
252 2 9.7779417 1.5671839 7.4850288
253 2 4.809371 9.6157828 11.110014
254 2 5.7986827 10.0788898 15.4974509
255 2 5.8759934 11.633214 8.3163672
256 2 2.1116207 17.1900902 16.4930477
257 1 6.5735455 7.1824293 27.4199619
258 1 13.044548 7.7385516 22.1907792
259 1 1.7002987 3.1660044 24.3183856
260 1 13.901518 5.350935 30.4453049
261 1 1.1393789 9.9911022 21.7548571
262 1 5.297585 16.7554627 27.6817007
263 1 8.0843725 5.7100139 26.0478687
264 1 1.7927007 7.3608613 30.7545633
265 1 10.0163469 15.9375678 31.8714066
266 1 8.9894314 11.8951998 25.4299364
267 1 12.7581663 6.7661653 32.7411098
268 1 4.5089545 1.0404527 29.9429417
269 1 2.8259747 6.6472545 21.7533817
270 1 15.2805996 4.1631441 23.6995563
271 1 3.587162 13.9631128 28.8656521
272 1 6.9126102 7.3826985 33.7678032
273 1 15.5862303 17.0962658 19.520343
274 1 16.6186524 6.1816282 30.7762432
275 1 16.5140648 2.2690978 28.6023931
276 1 10.445489 2.5496261 28.9950943
277 1 8.5268202 0.7403426 19.1155888
278 1 0.7857083 6.9411408 19.9340036
279 1 13.0796099 15.0838003 30.1054468
280 1 7.4122133 3.2340741 25.6683254
281 1 2.6159604 4.0128284 21.8256168
282 1 16.5834503 8.290246 33.9549656
283 1 16.8601532 3.4654484 25.6979122
284 1 0.656367 4.3595142 33.5630112
285 1 7.1694121 1.2860884 31.9603472
286 1 7.8279543 3.8757582 32.4701967
287 1 5.1586976 4.3958697 21.3484964
288 1 12.7092123 11.9470568 34.3683395
289 1 10.4906483 1.2521552 32.5946102
290 1 11.5598049 9.2820053 20.8866878
291 1 16.6027928 10.0044327 23.6023989
292 1 14.1264677 17.1694164 31.8190346
293 1 12.7420969 16.275507 22.2580434
294 1 9.3814917 5.3509536 28.5290937
295 1 3.8656236 17.1475086 22.9482927
296 1 16.0070076 3.1912663 34.3745098
297 1 6.6131935 5.1907587 23.5919218
298 1 5.6450243 3.6209295 18.8041984
299 1 7.4897704 5.3754249 20.8208632
300 1 11.5103131 9.0261087 24.677331
301 1 6.7577315 17.0226402 23.2714086
302 1 10.070405 5.3949747 19.5129785
303 1 14.8981352 16.1223183 33.9351635
304 1 12.6855965 17.2226219 27.881813
305 1 10.3420086 3.2508612 22.8483214
306 1 1.4941089 6.861025 33.6791134
307 1 12.0349007 7.3391647 30.5495643
308 1 3.3273118 9.3031168 19.7748399
309 1 13.6950922 10.6198054 26.0579662
310 1 13.2711935 10.3523626 19.2703788
311 1 8.5091486 8.5087567 24.9448695
312 1 1.1828508 12.5531817 27.8203526
313 1 7.1578922 10.9115678 29.4249334
314 1 7.8624126 7.2858734 22.6395173
315 1 13.2189226 0.8093746 20.5334113
316 1 11.095808 0.8622606 18.8020897
317 1 2.8575478 13.3934736 34.4023247
318 1 0.1105617 5.6116715 24.2934704
319 1 1.2092308 17.1050911 19.4697864
320 1 11.6878567 11.4524899 23.2234922
321 1 0.3909522 15.338686 21.4636917
322 1 0.2318878 15.3143025 32.8938599
323 1 3.157747 10.6220608 34.4014625
324 1 13.7086115 3.0408409 18.6740056
325 1 10.8783208 6.5700412 21.7496171
326 1 12.6922074 5.3065934 19.8947055
327 1 8.5349055 11.7317267 17.4158908
328 1 4.8322354 2.8557106 32.0926619
329 1 9.1163597 1.0419179 27.1044321
330 1 1.7713651 3.496368 27.4217148
331 1 0.1136034 1.7961647 20.7113891
332 1 16.207428 8.8094836 19.309893
333 1 12.8010445 14.9854804 24.4150738
334 1 8.7328406 0.5700788 29.5671358
335 1 3.6019631 2.2526505 18.0682579
336 1 4.8933458 12.1631908 30.1086168
337 1 2.7442882 14.7436972 23.2868438
338 1 1.7484132 14.8028574 18.9015231
339 1 9.5537377 15.4335737 19.1862168
340 1 7.964254 14.9227762 22.8711205
341 1 8.3262978 9.481061 32.9467926
342 1 16.7830315 14.8819448 28.6941032
343 1 12.8650504 4.3674526 25.7687321
344 1 2.2343834 2.4304438 33.2130794
345 1 12.3529415 14.0616798 32.5721779
346 1 13.5699272 10.2223396 23.014493
347 1 14.8311987 0.1303949 29.4048118
348 1 12.6706505 12.2189446 20.847791
349 1 10.5701485 4.6340671 33.0938616
350 1 6.2777753 13.2962465 28.2435876
351 1 5.1804586 5.3620582 25.8162537
352 1 5.6910486 14.1843157 23.1379061
353 1 10.858781 4.984162 30.4567308
354 1 5.6810341 4.944293 33.540905
355 1 13.3764534 7.4809914 25.5287208
356 1 1.7019532 1.3352702 22.4747791
357 1 11.2948008 8.8635988 32.7859364
358 1 15.0546179 2.1964545 21.3885393
359 1 0.3590607 1.6800033 18.2915186
360 1 2.5353692 0.3209512 31.4809036
361 1 7.1967263 9.8270178 27.1459188
362 1 12.7695399 4.834611 22.7629199
363 1 9.4613695 12.650261 22.8331347
364 1 11.7142287 2.0466263 26.2530718
365 1 15.8208103 12.7646017 26.8146152
366 1 0.0211571 12.9958802 24.6244082
367 1 5.8340683 11.5723553 22.9722304
368 1 2.5493942 8.2583304 23.6552286
369 1 9.0257187 16.8813458 34.3770523
370 1 12.373251 5.3981424 28.27668
371 1 15.2255898 16.4389954 23.0366669
372 1 15.457881 5.8313875 33.6624737
373 1 16.3219032 14.414855 18.5679257
374 1 8.0916243 16.3213234 27.3107624
375 1 16.4471131 7.9016558 25.8086128
376 1 1.115818 16.6112385 23.7697635
377 1 6.4454398 9.7475786 17.8845791
378 1 15.1167727 5.3991761 18.95447
379 1 14.3571177 12.4869471 24.5375337
380 1 10.2743521 14.3760643 34.4383468
381 1 17.2606163 7.6283045 22.5047626
382 1 4.0953507 11.6308527 27.6275511
383 1 16.9888 10.5797386 26.3053094
384 1 10.7788954 14.6835585 21.824996
385 1 15.915722 15.2998572 30.8697166
386 1 6.2391577 1.2587558 21.2122486
387 1 14.4060278 0.0579498 25.6289139
388 1 8.906189 11.0511208 20.3532483
389 1 5.9818196 0.9334412 25.5457535
390 1 14.2056723 7.87108 28.5530958
391 1 3.2260871 15.760006 20.8893089
392 1 12.0623636 16.7220097 33.8928967
393 1 5.4852429 0.1910094 18.7230362
394 1 8.5896492 5.6571946 17.3498368
395 1 5.5244532 7.1056871 21.7877212
396 1 2.1052055 16.4056873 28.9251919
397 1 15.2528849 11.1635046 34.5548134
398 1 14.8740692 12.5247135 19.2779574
399 1 12.3031168 2.7866876 31.217843
400 1 8.0348568 3.380959 29.6454849
401 1 8.7314768 16.3748608 24.8972487
402 1 6.2107511 12.7884398 33.9920521
403 1 7.239347 13.9343786 25.5970774
404 1 4.7742734 0.5250646 33.563015
405 1 4.5476079 7.0345726 31.6538963
406 1 10.7805701 6.5154057 24.5490026
407 1 0.229297 7.8754808 28.2647896
408 1 17.0817528 0.5214597 33.3950786
409 1 6.3213573 9.8374129 20.6986637
410 1 8.3086195 8.3148394 29.0311718
411 1 7.0775309 1.9663026 34.5672684
412 1 13.7829724 3.9800358 33.0816183
413 1 10.6139755 13.6321383 30.7448301
414 1 5.4925957 11.8733444 19.0542014
415 1 10.7843571 12.6674385 19.1167191
416 1 3.4932966 17.0730743 25.5954409
417 1 10.8344937 15.9992276 28.7010002
418 1 9.3772307 10.6984186 28.1948624
419 1 0.3681311 4.1716523 19.8578818
420 1 10.6165047 11.5754452 32.6097317
421 1 2.7649193 4.9650608 31.938796
422 1 1.7612233 1.9368076 29.6990194
423 1 1.6875915 14.6825257 26.2569866
424 1 15.2420178 6.2751427 21.3413763
425 1 5.735795 5.2052107 30.5794582
426 1 2.4330147 8.6861058 26.4905615
427 1 7.3169499 13.0808535 20.4467134
428 1 14.9097996 13.6363068 33.643259
429 1 16.4471112 1.5571747 23.5820851
430 1 4.1136208 9.5197954 22.2762818
431 1 11.5710917 3.8629094 17.798235
432 1 6.9656096 16.0147762 33.0304747
433 1 14.3630428 13.0577936 29.3179856
434 1 10.4990025 10.0558329 17.8922189
435 1 16.0365772 8.57158 31.1049719
436 1 14.7393408 2.5939639 26.5478582
437 1 5.9820642 6.4135752 18.5799525
438 1 11.4975853 17.0107746 25.0838552
439 1 9.2782002 9.8726978 22.4418092
440 1 0.7311632 4.1538467 29.7540407
441 1 8.3182449 15.1831646 29.9304523
442 1 6.5305081 4.5602408 28.0038385
443 1 1.1902973 6.2266498 26.4239168
444 1 10.0263224 10.1028204 30.618823
445 1 16.2335205 15.3189259 25.1507292
446 1 11.5352373 11.4451742 26.7643051
447 1 16.289875 10.0146599 28.9818935
448 1 11.9528122 11.8227806 29.7529516
449 1 1.028963 12.5563956 32.5180769
450 1 14.081193 14.9983274 27.244257
451 1 15.7261248 10.7207651 21.2010984
452 1 13.2424908 2.7328604 29.0219717
453 1 6.6977339 1.907763 27.8262758
454 1 6.2680993 8.7028132 30.5955562
455 1 8.9493886 3.1607263 20.4150457
456 1 3.656972 2.2564392 20.6443348
457 1 6.1700988 16.5108166 30.4230127
458 1 17.0170078 12.099905 30.4678583
459 1 0.1183754 12.4793673 21.9947758
460 1 4.8025394 14.551837 18.9256164
461 1 14.8721524 13.7994681 21.9291902
462 1 2.9586378 5.4525681 24.1102715
463 1 10.0858536 4.2742577 26.5085153
464 1 0.6737151 9.8615008 32.5298204
465 1 10.6525221 13.9424934 25.3552742
466 1 9.1294165 13.6124907 27.6180639
467 1 13.9725666 0.7882902 17.8059239
468 1 9.1574316 2.7022341 17.5173305
469 1 13.5933914 9.1383801 34.0077133
470 1 13.8935146 7.771935 19.493155
471 1 17.0206985 0.6384601 30.737278
472 1 3.2239895 9.4542046 32.2442226
473 1 11.7470198 6.8827348 17.8008692
474 1 1.6154288 8.5866184 18.2160018
475 1 6.6416054 15.8524972 20.770987
476 1 11.4729014 2.9406574 20.6284594
477 1 14.9728012 8.0928803 23.5580292
478 1 11.881158 13.7727995 27.7959099
479 1 4.217258 7.8017779 34.2348634
480 1 7.4389715 14.6909752 18.2402382
481 1 1.4870831 14.1385212 30.1143694
482 1 3.8889216 3.5393582 29.6461563
483 1 3.9178774 11.9224424 32.5826206
484 1 11.4173813 0.4463115 30.3017808
485 1 7.6123991 3.0859108 22.6147981
486 1 3.9512434 1.7455311 27.3351097
487 1 4.4899016 14.3790455 26.0047836
488 1 4.5292583 2.7678213 23.8635793
489 1 3.0416873 5.1489248 18.4120354
490 1 3.2881057 12.7004957 20.9630029
491 1 4.1329498 15.0093946 32.4203396
492 1 8.8853026 6.9553028 31.6602745
493 2 2.0360615 10.4382983 29.5869036
494 2 12.9780998 1.9133988 23.6160846
495 2 12.9026242 14.9166002 19.4026739
496 2 5.7913447 8.7271519 24.6213527
497 2 3.3738246 6.4257012 28.500803
498 2 9.6527968 0.5401752 21.9404669
499 2 0.5436381 0.4356851 26.7940235
500 2 2.9619356 11.3754969 24.4989052
501 2 0.573116 11.5661974 18.6074518
502 2 15.867672 3.2090473 31.1940832
503 2 13.9334354 10.9915724 31.6880865
504 2 15.9233542 5.0590382 27.7380504
505 2 11.1304522 8.2614689 27.5305462
506 2 9.0374355 8.0369053 19.5770976
507 2 7.8076139 13.0827808 31.7347822
508 2 9.7779417 1.5671839 24.804647
509 2 4.809371 9.6157828 28.4296322
510 2 5.7986827 10.0788898 32.8170691
511 2 5.8759934 11.633214 25.6359854
512 2 2.1116207 17.1900902 33.8126659
513 1 6.5735455 24.5020475 10.1003437
514 1 13.044548 25.0581698 4.871161
515 1 1.7002987 20.4856226 6.9987674
516 1 13.901518 22.6705532 13.1256867
517 1 1.1393789 27.3107204 4.4352389
518 1 5.297585 34.0750809 10.3620825
519 1 8.0843725 23.0296321 8.7282505
520 1 1.7927007 24.6804795 13.4349451
521 1 10.0163469 33.257186 14.5517884
522 1 8.9894314 29.214818 8.1103182
523 1 12.7581663 24.0857835 15.4214916
524 1 4.5089545 18.3600709 12.6233235
525 1 2.8259747 23.9668727 4.4337635
526 1 15.2805996 21.4827623 6.3799381
527 1 3.587162 31.282731 11.5460339
528 1 6.9126102 24.7023167 16.448185
529 1 15.5862303 34.415884 2.2007248
530 1 16.6186524 23.5012464 13.456625
531 1 16.5140648 19.588716 11.2827749
532 1 10.445489 19.8692443 11.6754761
533 1 8.5268202 18.0599608 1.7959706
534 1 0.7857083 24.260759 2.6143854
535 1 13.0796099 32.4034185 12.7858286
536 1 7.4122133 20.5536923 8.3487072
537 1 2.6159604 21.3324466 4.5059986
538 1 16.5834503 25.6098642 16.6353474
539 1 16.8601532 20.7850666 8.378294
540 1 0.656367 21.6791324 16.243393
541 1 7.1694121 18.6057066 14.640729
542 1 7.8279543 21.1953764 15.1505785
543 1 5.1586976 21.7154879 4.0288782
544 1 12.7092123 29.266675 17.0487213
545 1 10.4906483 18.5717734 15.274992
546 1 11.5598049 26.6016235 3.5670696
547 1 16.6027928 27.3240509 6.2827807
548 1 14.1264677 34.4890346 14.4994164
549 1 12.7420969 33.5951252 4.9384252
550 1 9.3814917 22.6705718 11.2094755
551 1 3.8656236 34.4671268 5.6286745
552 1 16.0070076 20.5108845 17.0548916
553 1 6.6131935 22.5103769 6.2723036
554 1 5.6450243 20.9405477 1.4845802
555 1 7.4897704 22.6950431 3.501245
556 1 11.5103131 26.3457269 7.3577128
557 1 6.7577315 34.3422584 5.9517904
558 1 10.070405 22.7145929 2.1933603
559 1 14.8981352 33.4419365 16.6155453
560 1 12.6855965 34.5422401 10.5621948
561 1 10.3420086 20.5704794 5.5287032
562 1 1.4941089 24.1806432 16.3594952
563 1 12.0349007 24.6587829 13.2299461
564 1 3.3273118 26.622735 2.4552217
565 1 13.6950922 27.9394236 8.738348
566 1 13.2711935 27.6719808 1.9507606
567 1 8.5091486 25.8283749 7.6252513
568 1 1.1828508 29.8727999 10.5007344
569 1 7.1578922 28.231186 12.1053152
570 1 7.8624126 24.6054916 5.3198991
571 1 13.2189226 18.1289928 3.2137931
572 1 11.095808 18.1818788 1.4824715
573 1 2.8575478 30.7130918 17.0827065
574 1 0.1105617 22.9312897 6.9738522
575 1 1.2092308 34.4247093 2.1501682
576 1 11.6878567 28.7721081 5.903874
577 1 0.3909522 32.6583042 4.1440735
578 1 0.2318878 32.6339207 15.5742417
579 1 3.157747 27.941679 17.0818443
580 1 13.7086115 20.3604591 1.3543874
581 1 10.8783208 23.8896594 4.4299989
582 1 12.6922074 22.6262116 2.5750873
583 1 8.5349055 29.0513449 0.0962726
584 1 4.8322354 20.1753288 14.7730437
585 1 9.1163597 18.3615361 9.7848139
586 1 1.7713651 20.8159862 10.1020966
587 1 0.1136034 19.1157829 3.3917709
588 1 16.207428 26.1291018 1.9902748
589 1 12.8010445 32.3050986 7.0954556
590 1 8.7328406 17.889697 12.2475176
591 1 3.6019631 19.5722687 0.7486397
592 1 4.8933458 29.482809 12.7889986
593 1 2.7442882 32.0633154 5.9672256
594 1 1.7484132 32.1224756 1.5819049
595 1 9.5537377 32.7531919 1.8665986
596 1 7.964254 32.2423944 5.5515023
597 1 8.3262978 26.8006792 15.6271744
598 1 16.7830315 32.201563 11.374485
599 1 12.8650504 21.6870708 8.4491139
600 1 2.2343834 19.750062 15.8934612
601 1 12.3529415 31.381298 15.2525597
602 1 13.5699272 27.5419578 5.6948748
603 1 14.8311987 17.4500131 12.0851936
604 1 12.6706505 29.5385628 3.5281728
605 1 10.5701485 21.9536853 15.7742434
606 1 6.2777753 30.6158647 10.9239694
607 1 5.1804586 22.6816764 8.4966355
608 1 5.6910486 31.5039339 5.8182879
609 1 10.858781 22.3037802 13.1371126
610 1 5.6810341 22.2639112 16.2212868
611 1 13.3764534 24.8006096 8.2091026
612 1 1.7019532 18.6548884 5.1551609
613 1 11.2948008 26.183217 15.4663182
614 1 15.0546179 19.5160727 4.0689211
615 1 0.3590607 18.9996215 0.9719004
616 1 2.5353692 17.6405694 14.1612854
617 1 7.1967263 27.146636 9.8263006
618 1 12.7695399 22.1542292 5.4433017
619 1 9.4613695 29.9698792 5.5135165
620 1 11.7142287 19.3662445 8.9334536
621 1 15.8208103 30.0842199 9.494997
622 1 0.0211571 30.3154984 7.30479
623 1 5.8340683 28.8919735 5.6526122
624 1 2.5493942 25.5779486 6.3356104
625 1 9.0257187 34.200964 17.0574341
626 1 12.373251 22.7177606 10.9570618
627 1 15.2255898 33.7586136 5.7170487
628 1 15.457881 23.1510057 16.3428555
629 1 16.3219032 31.7344732 1.2483075
630 1 8.0916243 33.6409416 9.9911442
631 1 16.4471131 25.221274 8.4889946
632 1 1.115818 33.9308567 6.4501453
633 1 6.4454398 27.0671968 0.5649609
634 1 15.1167727 22.7187943 1.6348518
635 1 14.3571177 29.8065653 7.2179155
636 1 10.2743521 31.6956825 17.1187286
637 1 17.2606163 24.9479227 5.1851444
638 1 4.0953507 28.9504709 10.3079329
639 1 16.9888 27.8993568 8.9856912
640 1 10.7788954 32.0031767 4.5053778
641 1 15.915722 32.6194754 13.5500984
642 1 6.2391577 18.578374 3.8926304
643 1 14.4060278 17.377568 8.3092957
644 1 8.906189 28.370739 3.0336301
645 1 5.9818196 18.2530594 8.2261353
646 1 14.2056723 25.1906982 11.2334776
647 1 3.2260871 33.0796242 3.5696907
648 1 12.0623636 34.0416279 16.5732785
649 1 5.4852429 17.5106276 1.403418
650 1 8.5896492 22.9768128 0.0302186
651 1 5.5244532 24.4253053 4.468103
652 1 2.1052055 33.7253055 11.6055737
653 1 15.2528849 28.4831228 17.2351952
654 1 14.8740692 29.8443317 1.9583392
655 1 12.3031168 20.1063058 13.8982248
656 1 8.0348568 20.7005772 12.3258667
657 1 8.7314768 33.694479 7.5776305
658 1 6.2107511 30.108058 16.6724339
659 1 7.239347 31.2539968 8.2774592
660 1 4.7742734 17.8446828 16.2433968
661 1 4.5476079 24.3541908 14.3342781
662 1 10.7805701 23.8350239 7.2293844
663 1 0.229297 25.195099 10.9451714
664 1 17.0817528 17.8410779 16.0754604
665 1 6.3213573 27.1570311 3.3790455
666 1 8.3086195 25.6344576 11.7115536
667 1 7.0775309 19.2859208 17.2476502
668 1 13.7829724 21.299654 15.7620001
669 1 10.6139755 30.9517565 13.4252119
670 1 5.4925957 29.1929626 1.7345832
671 1 10.7843571 29.9870567 1.7971009
672 1 3.4932966 34.3926925 8.2758227
673 1 10.8344937 33.3188458 11.381382
674 1 9.3772307 28.0180368 10.8752442
675 1 0.3681311 21.4912705 2.5382636
676 1 10.6165047 28.8950634 15.2901135
677 1 2.7649193 22.284679 14.6191778
678 1 1.7612233 19.2564258 12.3794012
679 1 1.6875915 32.0021439 8.9373684
680 1 15.2420178 23.5947609 4.0217581
681 1 5.735795 22.5248289 13.25984
682 1 2.4330147 26.005724 9.1709433
683 1 7.3169499 30.4004717 3.1270952
684 1 14.9097996 30.955925 16.3236408
685 1 16.4471112 18.8767929 6.2624669
686 1 4.1136208 26.8394136 4.9566636
687 1 11.5710917 21.1825276 0.4786168
688 1 6.9656096 33.3343944 15.7108565
689 1 14.3630428 30.3774118 11.9983674
690 1 10.4990025 27.3754511 0.5726007
691 1 16.0365772 25.8911982 13.7853537
692 1 14.7393408 19.9135821 9.22824
693 1 5.9820642 23.7331934 1.2603343
694 1 11.4975853 34.3303928 7.764237
695 1 9.2782002 27.192316 5.122191
696 1 0.7311632 21.4734649 12.4344225
697 1 8.3182449 32.5027828 12.6108341
698 1 6.5305081 21.879859 10.6842203
699 1 1.1902973 23.546268 9.1042986
700 1 10.0263224 27.4224386 13.2992048
701 1 16.2335205 32.6385441 7.831111
702 1 11.5352373 28.7647924 9.4446869
703 1 16.289875 27.3342781 11.6622753
704 1 11.9528122 29.1423988 12.4333334
705 1 1.028963 29.8760138 15.1984587
706 1 14.081193 32.3179456 9.9246388
707 1 15.7261248 28.0403833 3.8814802
708 1 13.2424908 20.0524786 11.7023535
709 1 6.6977339 19.2273812 10.5066576
710 1 6.2680993 26.0224314 13.275938
711 1 8.9493886 20.4803445 3.0954275
712 1 3.656972 19.5760574 3.3247166
713 1 6.1700988 33.8304348 13.1033945
714 1 17.0170078 29.4195232 13.1482401
715 1 0.1183754 29.7989855 4.6751576
716 1 4.8025394 31.8714552 1.6059982
717 1 14.8721524 31.1190863 4.609572
718 1 2.9586378 22.7721863 6.7906533
719 1 10.0858536 21.5938759 9.1888971
720 1 0.6737151 27.181119 15.2102022
721 1 10.6525221 31.2621116 8.035656
722 1 9.1294165 30.9321089 10.2984457
723 1 13.9725666 18.1079084 0.4863057
724 1 9.1574316 20.0218523 0.1977123
725 1 13.5933914 26.4579983 16.6880951
726 1 13.8935146 25.0915532 2.1735368
727 1 17.0206985 17.9580783 13.4176598
728 1 3.2239895 26.7738228 14.9246044
729 1 11.7470198 24.202353 0.481251
730 1 1.6154288 25.9062366 0.8963836
731 1 6.6416054 33.1721154 3.4513688
732 1 11.4729014 20.2602756 3.3088412
733 1 14.9728012 25.4124985 6.238411
734 1 11.881158 31.0924177 10.4762917
735 1 4.217258 25.1213961 16.9152452
736 1 7.4389715 32.0105934 0.92062
737 1 1.4870831 31.4581394 12.7947512
738 1 3.8889216 20.8589764 12.3265381
739 1 3.9178774 29.2420606 15.2630024
740 1 11.4173813 17.7659297 12.9821626
741 1 7.6123991 20.405529 5.2951799
742 1 3.9512434 19.0651493 10.0154915
743 1 4.4899016 31.6986637 8.6851654
744 1 4.5292583 20.0874395 6.5439611
745 1 3.0416873 22.468543 1.0924172
746 1 3.2881057 30.0201139 3.6433847
747 1 4.1329498 32.3290128 15.1007214
748 1 8.8853026 24.274921 14.3406563
749 2 2.0360615 27.7579165 12.2672854
750 2 12.9780998 19.233017 6.2964664
751 2 12.9026242 32.2362184 2.0830557
752 2 5.7913447 26.0467701 7.3017345
753 2 3.3738246 23.7453194 11.1811848
754 2 9.6527968 17.8597934 4.6208487
755 2 0.5436381 17.7553033 9.4744053
756 2 2.9619356 28.6951151 7.179287
757 2 0.573116 28.8858156 1.2878336
758 2 15.867672 20.5286655 13.874465
759 2 13.9334354 28.3111906 14.3684683
760 2 15.9233542 22.3786564 10.4184322
761 2 11.1304522 25.5810871 10.210928
762 2 9.0374355 25.3565235 2.2574794
763 2 7.8076139 30.402399 14.415164
764 2 9.7779417 18.8868021 7.4850288
765 2 4.809371 26.935401 11.110014
766 2 5.7986827 27.398508 15.4974509
767 2 5.8759934 28.9528322 8.3163672
768 2 2.1116207 34.5097084 16.4930477
769 1 6.5735455 24.5020475 27.4199619
770 1 13.044548 25.0581698 22.1907792
771 1 1.7002987 20.4856226 24.3183856
772 1 13.901518 22.6705532 30.4453049
773 1 1.1393789 27.3107204 21.7548571
774 1 5.297585 34.0750809 27.6817007
775 1 8.0843725 23.0296321 26.0478687
776 1 1.7927007 24.6804795 30.7545633
777 1 10.0163469 33.257186 31.8714066
778 1 8.9894314 29.214818 25.4299364
779 1 12.7581663 24.0857835 32.7411098
780 1 4.5089545 18.3600709 29.9429417
781 1 2.8259747 23.9668727 21.7533817
782 1 15.2805996 21.4827623 23.6995563
783 1 3.587162 31.282731 28.8656521
784 1 6.9126102 24.7023167 33.7678032
785 1 15.5862303 34.415884 19.520343
786 1 16.6186524 23.5012464 30.7762432
787 1 16.5140648 19.588716 28.6023931
788 1 10.445489 19.8692443 28.9950943
789 1 8.5268202 18.0599608 19.1155888
790 1 0.7857083 24.260759 19.9340036
791 1 13.0796099 32.4034185 30.1054468
792 1 7.4122133 20.5536923 25.6683254
793 1 2.6159604 21.3324466 21.8256168
794 1 16.5834503 25.6098642 33.9549656
795 1 16.8601532 20.7850666 25.6979122
796 1 0.656367 21.6791324 33.5630112
797 1 7.1694121 18.6057066 31.9603472
798 1 7.8279543 21.1953764 32.4701967
799 1 5.1586976 21.7154879 21.3484964
800 1 12.7092123 29.266675 34.3683395
801 1 10.4906483 18.5717734 32.5946102
802 1 11.5598049 26.6016235 20.8866878