# LAMMPS data file written by Ovito 3.0.0-dev422
6912 atoms
3 atom types
-17.3196182 34.6392364 xlo xhi
-17.3196182 34.6392364 ylo yhi
-17.3196182 34.6392364 zlo zhi

Masses

1 0.0
2 0.0
3 0.0

Atoms  # atomic

1 1 -10.7460727 -10.1371889 -7.2192745
2 1 -4.2750702 -9.5810666 -12.4484572
3 1 -15.6193195 -14.1536138 -10.3208508
4 1 -3.4181002 -11.9686832 -4.1939315
5 1 -16.1802393 -7.328516 -12.8843793
6 1 -12.0220332 -0.5641555 -6.9575357
7 1 -9.2352457 -11.6096043 -8.5913677
8 1 -15.5269175 -9.9587569 -3.8846731
9 1 -7.3032713 -1.3820504 -2.7678298
10 1 -8.3301868 -5.4244184 -9.2093
11 1 -4.5614519 -10.5534529 -1.8981266
12 1 -12.8106637 -16.2791655 -4.6962947
13 1 -14.4936435 -10.6723637 -12.8858547
14 1 -2.0390186 -13.1564741 -10.9396801
15 1 -13.7324562 -3.3565054 -5.7735843
16 1 -10.407008 -9.9369197 -0.8714332
17 1 -1.7333879 -0.2233524 -15.1188934
18 1 -0.7009658 -11.13799 -3.8629932
19 1 -0.8055534 -15.0505204 -6.0368433
20 1 -6.8741292 -14.7699921 -5.6441421
21 1 -8.792798 -16.5792756 -15.5236476
22 1 -16.5339099 -10.3784774 -14.7052328
23 1 -4.2400083 -2.2358179 -4.5337896
24 1 -9.9074049 -14.0855441 -8.970911
25 1 -14.7036578 -13.3067898 -12.8136196
26 1 -0.7361679 -9.0293722 -0.6842708
27 1 -0.459465 -13.8541698 -8.9413242
28 1 -16.6632512 -12.960104 -1.0762252
29 1 -10.1502061 -16.0335298 -2.6788892
30 1 -9.4916639 -13.44386 -2.1690397
31 1 -12.1609206 -12.9237485 -13.29074
32 1 -4.6104059 -5.3725614 -0.2708969
33 1 -6.8289699 -16.067463 -2.0446262
34 1 -5.7598133 -8.0376129 -13.7525486
35 1 -0.7168254 -7.3151855 -11.0368375
36 1 -3.1931505 -0.1502018 -2.8202018
37 1 -4.5775213 -1.0441112 -12.381193
38 1 -7.9381265 -11.9686646 -6.1101427
39 1 -13.4539946 -0.1721096 -11.6909437
40 1 -1.3126106 -14.1283519 -0.2647266
41 1 -10.7064247 -12.1288595 -11.0473146
42 1 -11.6745939 -13.6986887 -15.835038
43 1 -9.8298478 -11.9441933 -13.8183732
44 1 -5.8093051 -8.2935095 -9.9619054
45 1 -10.5618867 -0.296978 -11.3678278
46 1 -7.2492132 -11.9246435 -15.1262579
47 1 -2.421483 -1.1972999 -0.7040729
48 1 -4.6340217 -0.0969963 -6.7574234
49 1 -6.9776096 -14.068757 -11.790915
50 1 -15.8255093 -10.4585932 -0.960123
51 1 -5.2847175 -9.9804535 -4.0896721
52 1 -13.9923064 -8.0165014 -14.8643965
53 1 -3.624526 -6.6998128 -8.5812702
54 1 -4.0484247 -6.9672556 -15.3688576
55 1 -8.8104696 -8.8108615 -9.6943669
56 1 -16.1367674 -4.7664365 -6.8188838
57 1 -10.161726 -6.4080504 -5.214303
58 1 -9.4572056 -10.0337448 -11.9997191
59 1 -4.1006956 -16.5102436 -14.1058251
60 1 -6.2238102 -16.4573576 -15.8371467
61 1 -14.4620704 -3.9261446 -0.2369117
62 1 -17.2090565 -11.7079467 -10.345766
63 1 -16.1103874 -0.2145271 -15.16945
64 1 -5.6317615 -5.8671283 -11.4157442
65 1 -16.928666 -1.9809322 -13.1755447
66 1 -17.0877304 -2.0053157 -1.7453765
67 1 -14.1618712 -6.6975574 -0.2377739
68 1 -3.6110067 -14.2787773 -15.9652308
69 1 -6.4412974 -10.749577 -12.8896193
70 1 -4.6274108 -12.0130248 -14.7445309
71 1 -8.7847127 -5.5878915 -17.2233456
72 1 -12.4873828 -14.4639076 -2.5465745
73 1 -8.2032585 -16.2777003 -7.5348043
74 1 -15.5482531 -13.8232502 -7.2175216
75 1 -17.2060148 -15.5234535 -13.9278473
76 1 -1.1121902 -8.5101346 -15.3293434
77 1 -4.5185737 -2.3341378 -10.2241626
78 1 -8.5867776 -16.7495394 -5.0721006
79 1 -13.7176551 -15.0669677 -16.5709785
80 1 -12.4262724 -5.1564274 -4.5306196
81 1 -14.57533 -2.575921 -11.3523926
82 1 -15.571205 -2.5167608 -15.7377133
83 1 -7.7658805 -1.8860445 -15.4530196
84 1 -9.3553642 -2.396842 -11.7681159
85 1 -8.9933204 -7.8385572 -1.6924438
86 1 -0.5365867 -2.4376734 -5.9451332
87 1 -4.4545678 -12.9521656 -8.8705043
88 1 -15.0852348 -14.8891744 -1.426157
89 1 -4.9666767 -3.2579384 -2.0670585
90 1 -3.749691 -7.0972786 -11.6247434
91 1 -2.4884195 -17.1892233 -5.2344246
92 1 -4.6489677 -5.1006736 -13.7914454
93 1 -6.7494697 -12.6855511 -1.5453748
94 1 -11.0418429 -4.0233717 -6.3956488
95 1 -12.1391596 -11.95756 -8.8229827
96 1 -11.6285696 -3.1353025 -11.5013303
97 1 -6.4608372 -12.3354562 -4.1825056
98 1 -11.6385841 -12.3753252 -1.0983314
99 1 -3.9431648 -9.8386268 -9.1105156
100 1 -15.617665 -15.984348 -12.1644573
101 1 -6.0248174 -8.4560194 -1.8533
102 1 -2.2650003 -15.1231637 -13.2506971
103 1 -16.9605575 -15.6396149 -16.3477178
104 1 -14.784249 -16.998667 -3.1583328
105 1 -10.1228919 -7.4926004 -7.4933176
106 1 -4.5500783 -12.4850072 -11.8763165
107 1 -7.8582487 -4.6693572 -11.8061017
108 1 -5.6053895 -15.2729919 -8.3861646
109 1 -1.4988079 -4.5550165 -7.8246212
110 1 -17.2984611 -4.323738 -10.0148282
111 1 -11.4855499 -5.7472629 -11.667006
112 1 -14.770224 -9.0612878 -10.9840078
113 1 -8.2938995 -0.4382724 -0.2621841
114 1 -4.9463672 -11.9214758 -6.3625564
115 1 -2.0940284 -0.8806228 -11.6025695
116 1 -1.8617372 -11.4882307 -0.9767627
117 1 -0.997715 -2.9047632 -16.0713107
118 1 -9.2279939 -0.9982948 -7.328474
119 1 -0.8725051 -9.4179624 -8.8306236
120 1 -16.2038002 -0.7083797 -10.8694729
121 1 -10.8741784 -7.5720396 -16.7546573
122 1 -2.2028455 -11.9204421 -15.6847664
123 1 -2.9625005 -4.8326711 -10.1017027
124 1 -7.0452661 -2.9435539 -0.2008896
125 1 -0.0590019 -9.6913137 -12.1344738
126 1 -13.2242675 -5.6887655 -7.0116853
127 1 -0.3308182 -6.7398796 -8.333927
128 1 -6.5407228 -2.6360597 -12.8142404
129 1 -1.4038962 -2.019761 -3.7695198
130 1 -11.0804605 -16.0608624 -13.4269878
131 1 -2.9135904 -17.2616684 -9.0103225
132 1 -8.4134292 -6.2684974 -14.2859881
133 1 -11.3377986 -16.386177 -9.0934829
134 1 -3.1139459 -9.4485382 -6.0861406
135 1 -14.0935311 -1.5596122 -13.7499275
136 1 -5.2572546 -0.5976085 -0.7463397
137 1 -11.8343753 -17.1286088 -15.9162002
138 1 -8.729969 -11.6624236 -17.2893996
139 1 -11.795165 -10.2139311 -12.8515152
140 1 -15.2144127 -0.9139309 -5.7140445
141 1 -2.0667333 -6.1561136 -0.084423
142 1 -2.445549 -4.7949047 -15.361279
143 1 -5.0165014 -14.5329306 -3.4213934
144 1 -9.2847614 -13.9386592 -4.9937515
145 1 -8.5881414 -0.9447574 -9.7419877
146 1 -11.1088671 -4.5311784 -0.6471843
147 1 -10.0802712 -3.3852396 -9.042159
148 1 -12.5453448 -16.7945536 -1.0762214
149 1 -12.7720103 -10.2850456 -2.9853401
150 1 -6.5390481 -10.8042125 -10.0902338
151 1 -17.0903212 -9.4441374 -6.3744468
152 1 -0.2378654 -16.7981585 -1.2441578
153 1 -10.9982609 -7.4822053 -13.9405727
154 1 -9.0109987 -9.0047788 -5.6080646
155 1 -10.2420873 -15.3533156 -0.071968
156 1 -3.5366458 -13.3395824 -1.5576181
157 1 -6.7056427 -3.6874799 -3.8944063
158 1 -11.8270225 -5.4462738 -15.585035
159 1 -6.5352611 -4.6521797 -15.5225173
160 1 -13.8263216 -0.2465439 -9.0437955
161 1 -6.4851245 -1.3203906 -5.9382362
162 1 -7.9423875 -6.6211996 -6.444374
163 1 -16.9514871 -13.1479659 -14.7813546
164 1 -6.7031135 -5.744173 -2.0295047
165 1 -14.5546989 -12.3545574 -2.7004404
166 1 -15.5583949 -15.3828106 -4.940217
167 1 -15.6320267 -2.6370925 -8.3822498
168 1 -2.0776004 -11.0444755 -13.2978601
169 1 -11.5838232 -12.1144075 -4.0597782
170 1 -14.8866035 -8.6335124 -8.1486749
171 1 -10.0026683 -4.2387647 -14.192523
172 1 -2.4098186 -3.6833114 -0.9959774
173 1 -0.872507 -15.7624435 -11.0571513
174 1 -13.2059974 -7.7998228 -12.3629546
175 1 -5.7485265 -13.4567088 -16.8410014
176 1 -10.3540086 -1.304842 -1.6087617
177 1 -2.9565754 -4.2618246 -5.3212508
178 1 -6.8206157 -7.2637853 -16.7470175
179 1 -1.283041 -8.7480382 -3.5342645
180 1 -2.5802774 -14.7256543 -8.0913782
181 1 -11.337554 -10.906043 -16.0592839
182 1 -5.8220329 -0.3088436 -9.5553812
183 1 -8.041418 -7.4469204 -12.1974272
184 1 -16.588455 -13.1657715 -4.8851957
185 1 -9.0013733 -2.1364536 -4.7087841
186 1 -10.7891101 -12.7593774 -6.6353979
187 1 -16.1293209 -11.0929684 -8.2153196
188 1 -7.2932958 -7.2167978 -4.0204134
189 1 -1.0860977 -2.0006923 -9.4885072
190 1 -5.7843809 -5.874444 -7.8749313
191 1 -1.0297432 -7.3049583 -5.6573429
192 1 -5.366806 -5.4968376 -4.8862848
193 1 -16.2906552 -4.7632226 -2.1211595
194 1 -3.2384252 -2.3212908 -7.3949794
195 1 -1.5934934 -6.5988531 -13.438138
196 1 -4.0771274 -14.5867578 -5.6172647
197 1 -10.6218843 -15.4118552 -6.8129606
198 1 -11.0515189 -8.616805 -4.0436802
199 1 -8.3702296 -14.1588919 -14.2241907
200 1 -13.6626462 -15.063179 -13.9949016
201 1 -11.1495194 -0.8088016 -4.2162237
202 1 -0.3026104 -5.2197132 -4.1713781
203 1 -17.2012428 -4.8402509 -12.6444606
204 1 -12.5170788 -2.7677812 -15.71362
205 1 -2.4474658 -3.5201501 -12.7100462
206 1 -14.3609804 -11.8670501 -10.5289649
207 1 -7.2337646 -13.0453605 -8.1307211
208 1 -16.6459031 -7.4581174 -2.109416
209 1 -6.6670961 -3.3771248 -9.2839622
210 1 -8.1902017 -3.7071275 -7.0211725
211 1 -3.3470516 -16.531328 -16.8333125
212 1 -8.1621866 -14.6173841 -17.1219059
213 1 -3.7262268 -8.1812381 -0.6315231
214 1 -3.4261036 -9.5476832 -15.1460814
215 1 -0.2989197 -16.6811581 -3.9019584
216 1 -14.0956287 -7.8654136 -2.3950138
217 1 -5.5725984 -10.4368834 -16.8383672
218 1 -15.7041894 -8.7329998 -16.4232346
219 1 -10.6780128 -1.467121 -13.8682494
220 1 -5.8467168 -14.3789608 -14.010777
221 1 -2.346817 -9.2267379 -11.0812072
222 1 -5.4384602 -3.5468187 -6.8433265
223 1 -13.1023602 -9.5178403 -0.404373
224 1 -9.8806467 -2.628643 -16.3989982
225 1 -15.8325351 -3.181097 -4.524867
226 1 -13.4306966 -13.78026 -4.9930801
227 1 -13.4017408 -5.3971758 -2.0566158
228 1 -5.9022369 -16.8733067 -4.3374556
229 1 -9.7072191 -14.2337074 -12.0244383
230 1 -13.3683748 -15.5740871 -7.3041267
231 1 -12.8297166 -2.9405727 -8.6344528
232 2 -12.7903599 -14.5517969 -10.7756571
233 2 -14.2779309 -12.1706934 -16.227201
234 2 -14.0315125 -4.6191225 -13.6762335
235 2 -13.1866684 -2.3102236 -2.2188968
236 2 -8.4343156 -10.3643154 -2.9789619
237 2 -15.2835567 -6.8813199 -5.0523328
238 2 -4.3415184 -15.4062194 -11.0231518
239 2 -4.416994 -2.403018 -15.2365625
240 2 -11.5282735 -8.5924663 -10.0178837
241 2 -13.9457936 -10.893917 -6.1384334
242 2 -7.6668214 -16.779443 -12.6987695
243 2 -16.7759801 -16.8839331 -7.8452129
244 2 -14.3576826 -5.9441213 -10.1403312
245 2 -16.7465022 -5.7534208 -16.0317846
246 2 -1.4519462 -14.1105709 -3.4451532
247 2 -3.3861828 -6.3280458 -2.9511499
248 2 -1.396264 -12.26058 -6.901186
249 2 -6.189166 -9.0581493 -7.1086902
250 2 -8.2821827 -9.2827129 -15.0621388
251 2 -9.5120043 -4.2368374 -2.9044542
252 3 -7.5416765 -15.7524343 -9.8345894
253 3 -12.5102472 -7.7038354 -6.2096042
254 3 -11.5209355 -7.2407284 -1.8221673
255 3 -11.4436248 -5.6864042 -9.003251
256 3 -15.2079975 -0.129528 -0.8265705
257 1 -10.7460727 -10.1371889 10.1003437
258 1 -4.2750702 -9.5810666 4.871161
259 1 -15.6193195 -14.1536138 6.9987674
260 1 -3.4181002 -11.9686832 13.1256867
261 1 -16.1802393 -7.328516 4.4352389
262 1 -12.0220332 -0.5641555 10.3620825
263 1 -9.2352457 -11.6096043 8.7282505
264 1 -15.5269175 -9.9587569 13.4349451
265 1 -7.3032713 -1.3820504 14.5517884
266 1 -8.3301868 -5.4244184 8.1103182
267 1 -4.5614519 -10.5534529 15.4214916
268 1 -12.8106637 -16.2791655 12.6233235
269 1 -14.4936435 -10.6723637 4.4337635
270 1 -2.0390186 -13.1564741 6.3799381
271 1 -13.7324562 -3.3565054 11.5460339
272 1 -10.407008 -9.9369197 16.448185
273 1 -1.7333879 -0.2233524 2.2007248
274 1 -0.7009658 -11.13799 13.456625
275 1 -0.8055534 -15.0505204 11.2827749
276 1 -6.8741292 -14.7699921 11.6754761
277 1 -8.792798 -16.5792756 1.7959706
278 1 -16.5339099 -10.3784774 2.6143854
279 1 -4.2400083 -2.2358179 12.7858286
280 1 -9.9074049 -14.0855441 8.3487072
281 1 -14.7036578 -13.3067898 4.5059986
282 1 -0.7361679 -9.0293722 16.6353474
283 1 -0.459465 -13.8541698 8.378294
284 1 -16.6632512 -12.960104 16.243393
285 1 -10.1502061 -16.0335298 14.640729
286 1 -9.4916639 -13.44386 15.1505785
287 1 -12.1609206 -12.9237485 4.0288782
288 1 -4.6104059 -5.3725614 17.0487213
289 1 -6.8289699 -16.067463 15.274992
290 1 -5.7598133 -8.0376129 3.5670696
291 1 -0.7168254 -7.3151855 6.2827807
292 1 -3.1931505 -0.1502018 14.4994164
293 1 -4.5775213 -1.0441112 4.9384252
294 1 -7.9381265 -11.9686646 11.2094755
295 1 -13.4539946 -0.1721096 5.6286745
296 1 -1.3126106 -14.1283519 17.0548916
297 1 -10.7064247 -12.1288595 6.2723036
298 1 -11.6745939 -13.6986887 1.4845802
299 1 -9.8298478 -11.9441933 3.501245
300 1 -5.8093051 -8.2935095 7.3577128
301 1 -10.5618867 -0.296978 5.9517904
302 1 -7.2492132 -11.9246435 2.1933603
303 1 -2.421483 -1.1972999 16.6155453
304 1 -4.6340217 -0.0969963 10.5621948
305 1 -6.9776096 -14.068757 5.5287032
306 1 -15.8255093 -10.4585932 16.3594952
307 1 -5.2847175 -9.9804535 13.2299461
308 1 -13.9923064 -8.0165014 2.4552217
309 1 -3.624526 -6.6998128 8.738348
310 1 -4.0484247 -6.9672556 1.9507606
311 1 -8.8104696 -8.8108615 7.6252513
312 1 -16.1367674 -4.7664365 10.5007344
313 1 -10.161726 -6.4080504 12.1053152
314 1 -9.4572056 -10.0337448 5.3198991
315 1 -4.1006956 -16.5102436 3.2137931
316 1 -6.2238102 -16.4573576 1.4824715
317 1 -14.4620704 -3.9261446 17.0827065
318 1 -17.2090565 -11.7079467 6.9738522
319 1 -16.1103874 -0.2145271 2.1501682
320 1 -5.6317615 -5.8671283 5.903874
321 1 -16.928666 -1.9809322 4.1440735
322 1 -17.0877304 -2.0053157 15.5742417
323 1 -14.1618712 -6.6975574 17.0818443
324 1 -3.6110067 -14.2787773 1.3543874
325 1 -6.4412974 -10.749577 4.4299989
326 1 -4.6274108 -12.0130248 2.5750873
327 1 -8.7847127 -5.5878915 0.0962726
328 1 -12.4873828 -14.4639076 14.7730437
329 1 -8.2032585 -16.2777003 9.7848139
330 1 -15.5482531 -13.8232502 10.1020966
331 1 -17.2060148 -15.5234535 3.3917709
332 1 -1.1121902 -8.5101346 1.9902748
333 1 -4.5185737 -2.3341378 7.0954556
334 1 -8.5867776 -16.7495394 12.2475176
335 1 -13.7176551 -15.0669677 0.7486397
336 1 -12.4262724 -5.1564274 12.7889986
337 1 -14.57533 -2.575921 5.9672256
338 1 -15.571205 -2.5167608 1.5819049
339 1 -7.7658805 -1.8860445 1.8665986
340 1 -9.3553642 -2.396842 5.5515023
341 1 -8.9933204 -7.8385572 15.6271744
342 1 -0.5365867 -2.4376734 11.374485
343 1 -4.4545678 -12.9521656 8.4491139
344 1 -15.0852348 -14.8891744 15.8934612
345 1 -4.9666767 -3.2579384 15.2525597
346 1 -3.749691 -7.0972786 5.6948748
347 1 -2.4884195 -17.1892233 12.0851936
348 1 -4.6489677 -5.1006736 3.5281728
349 1 -6.7494697 -12.6855511 15.7742434
350 1 -11.0418429 -4.0233717 10.9239694
351 1 -12.1391596 -11.95756 8.4966355
352 1 -11.6285696 -3.1353025 5.8182879
353 1 -6.4608372 -12.3354562 13.1371126
354 1 -11.6385841 -12.3753252 16.2212868
355 1 -3.9431648 -9.8386268 8.2091026
356 1 -15.617665 -15.984348 5.1551609
357 1 -6.0248174 -8.4560194 15.4663182
358 1 -2.2650003 -15.1231637 4.0689211
359 1 -16.9605575 -15.6396149 0.9719004
360 1 -14.784249 -16.998667 14.1612854
361 1 -10.1228919 -7.4926004 9.8263006
362 1 -4.5500783 -12.4850072 5.4433017
363 1 -7.8582487 -4.6693572 5.5135165
364 1 -5.6053895 -15.2729919 8.9334536
365 1 -1.4988079 -4.5550165 9.494997
366 1 -17.2984611 -4.323738 7.30479
367 1 -11.4855499 -5.7472629 5.6526122
368 1 -14.770224 -9.0612878 6.3356104
369 1 -8.2938995 -0.4382724 17.0574341
370 1 -4.9463672 -11.9214758 10.9570618
371 1 -2.0940284 -0.8806228 5.7170487
372 1 -1.8617372 -11.4882307 16.3428555
373 1 -0.997715 -2.9047632 1.2483075
374 1 -9.2279939 -0.9982948 9.9911442
375 1 -0.8725051 -9.4179624 8.4889946
376 1 -16.2038002 -0.7083797 6.4501453
377 1 -10.8741784 -7.5720396 0.5649609
378 1 -2.2028455 -11.9204421 1.6348518
379 1 -2.9625005 -4.8326711 7.2179155
380 1 -7.0452661 -2.9435539 17.1187286
381 1 -0.0590019 -9.6913137 5.1851444
382 1 -13.2242675 -5.6887655 10.3079329
383 1 -0.3308182 -6.7398796 8.9856912
384 1 -6.5407228 -2.6360597 4.5053778
385 1 -1.4038962 -2.019761 13.5500984
386 1 -11.0804605 -16.0608624 3.8926304
387 1 -2.9135904 -17.2616684 8.3092957
388 1 -8.4134292 -6.2684974 3.0336301
389 1 -11.3377986 -16.386177 8.2261353
390 1 -3.1139459 -9.4485382 11.2334776
391 1 -14.0935311 -1.5596122 3.5696907
392 1 -5.2572546 -0.5976085 16.5732785
393 1 -11.8343753 -17.1286088 1.403418
394 1 -8.729969 -11.6624236 0.0302186
395 1 -11.795165 -10.2139311 4.468103
396 1 -15.2144127 -0.9139309 11.6055737
397 1 -2.0667333 -6.1561136 17.2351952
398 1 -2.445549 -4.7949047 1.9583392
399 1 -5.0165014 -14.5329306 13.8982248
400 1 -9.2847614 -13.9386592 12.3258667
401 1 -8.5881414 -0.9447574 7.5776305
402 1 -11.1088671 -4.5311784 16.6724339
403 1 -10.0802712 -3.3852396 8.2774592
404 1 -12.5453448 -16.7945536 16.2433968
405 1 -12.7720103 -10.2850456 14.3342781
406 1 -6.5390481 -10.8042125 7.2293844
407 1 -17.0903212 -9.4441374 10.9451714
408 1 -0.2378654 -16.7981585 16.0754604
409 1 -10.9982609 -7.4822053 3.3790455
410 1 -9.0109987 -9.0047788 11.7115536
411 1 -10.2420873 -15.3533156 17.2476502
412 1 -3.5366458 -13.3395824 15.7620001
413 1 -6.7056427 -3.6874799 13.4252119
414 1 -11.8270225 -5.4462738 1.7345832
415 1 -6.5352611 -4.6521797 1.7971009
416 1 -13.8263216 -0.2465439 8.2758227
417 1 -6.4851245 -1.3203906 11.381382
418 1 -7.9423875 -6.6211996 10.8752442
419 1 -16.9514871 -13.1479659 2.5382636
420 1 -6.7031135 -5.744173 15.2901135
421 1 -14.5546989 -12.3545574 14.6191778
422 1 -15.5583949 -15.3828106 12.3794012
423 1 -15.6320267 -2.6370925 8.9373684
424 1 -2.0776004 -11.0444755 4.0217581
425 1 -11.5838232 -12.1144075 13.25984
426 1 -14.8866035 -8.6335124 9.1709433
427 1 -10.0026683 -4.2387647 3.1270952
428 1 -2.4098186 -3.6833114 16.3236408
429 1 -0.872507 -15.7624435 6.2624669
430 1 -13.2059974 -7.7998228 4.9566636
431 1 -5.7485265 -13.4567088 0.4786168
432 1 -10.3540086 -1.304842 15.7108565
433 1 -2.9565754 -4.2618246 11.9983674
434 1 -6.8206157 -7.2637853 0.5726007
435 1 -1.283041 -8.7480382 13.7853537
436 1 -2.5802774 -14.7256543 9.22824
437 1 -11.337554 -10.906043 1.2603343
438 1 -5.8220329 -0.3088436 7.764237
439 1 -8.041418 -7.4469204 5.122191
440 1 -16.588455 -13.1657715 12.4344225
441 1 -9.0013733 -2.1364536 12.6108341
442 1 -10.7891101 -12.7593774 10.6842203
443 1 -16.1293209 -11.0929684 9.1042986
444 1 -7.2932958 -7.2167978 13.2992048
445 1 -1.0860977 -2.0006923 7.831111
446 1 -5.7843809 -5.874444 9.4446869
447 1 -1.0297432 -7.3049583 11.6622753
448 1 -5.366806 -5.4968376 12.4333334
449 1 -16.2906552 -4.7632226 15.1984587
450 1 -3.2384252 -2.3212908 9.9246388
451 1 -1.5934934 -6.5988531 3.8814802
452 1 -4.0771274 -14.5867578 11.7023535
453 1 -10.6218843 -15.4118552 10.5066576
454 1 -11.0515189 -8.616805 13.275938
455 1 -8.3702296 -14.1588919 3.0954275
456 1 -13.6626462 -15.063179 3.3247166
457 1 -11.1495194 -0.8088016 13.1033945
458 1 -0.3026104 -5.2197132 13.1482401
459 1 -17.2012428 -4.8402509 4.6751576
460 1 -12.5170788 -2.7677812 1.6059982
461 1 -2.4474658 -3.5201501 4.609572
462 1 -14.3609804 -11.8670501 6.7906533
463 1 -7.2337646 -13.0453605 9.1888971
464 1 -16.6459031 -7.4581174 15.2102022
465 1 -6.6670961 -3.3771248 8.035656
466 1 -8.1902017 -3.7071275 10.2984457
467 1 -3.3470516 -16.531328 0.4863057
468 1 -8.1621866 -14.6173841 0.1977123
469 1 -3.7262268 -8.1812381 16.6880951
470 1 -3.4261036 -9.5476832 2.1735368
471 1 -0.2989197 -16.6811581 13.4176598
472 1 -14.0956287 -7.8654136 14.9246044
473 1 -5.5725984 -10.4368834 0.481251
474 1 -15.7041894 -8.7329998 0.8963836
475 1 -10.6780128 -1.467121 3.4513688
476 1 -5.8467168 -14.3789608 3.3088412
477 1 -2.346817 -9.2267379 6.238411
478 1 -5.4384602 -3.5468187 10.4762917
479 1 -13.1023602 -9.5178403 16.9152452
480 1 -9.8806467 -2.628643 0.92062
481 1 -15.8325351 -3.181097 12.7947512
482 1 -13.4306966 -13.78026 12.3265381
483 1 -13.4017408 -5.3971758 15.2630024
484 1 -5.9022369 -16.8733067 12.9821626
485 1 -9.7072191 -14.2337074 5.2951799
486 1 -13.3683748 -15.5740871 10.0154915
487 1 -12.8297166 -2.9405727 8.6851654
488 2 -12.7903599 -14.5517969 6.5439611
489 2 -14.2779309 -12.1706934 1.0924172
490 2 -14.0315125 -4.6191225 3.6433847
491 2 -13.1866684 -2.3102236 15.1007214
492 2 -8.4343156 -10.3643154 14.3406563
493 2 -15.2835567 -6.8813199 12.2672854
494 2 -4.3415184 -15.4062194 6.2964664
495 2 -4.416994 -2.403018 2.0830557
496 2 -11.5282735 -8.5924663 7.3017345
497 2 -13.9457936 -10.893917 11.1811848
498 2 -7.6668214 -16.779443 4.6208487
499 2 -16.7759801 -16.8839331 9.4744053
500 2 -14.3576826 -5.9441213 7.179287
501 2 -16.7465022 -5.7534208 1.2878336
502 2 -1.4519462 -14.1105709 13.874465
503 2 -3.3861828 -6.3280458 14.3684683
504 2 -1.396264 -12.26058 10.4184322
505 2 -6.189166 -9.0581493 10.210928
506 2 -8.2821827 -9.2827129 2.2574794
507 2 -9.5120043 -4.2368374 14.415164
508 3 -7.5416765 -15.7524343 7.4850288
509 3 -12.5102472 -7.7038354 11.110014
510 3 -11.5209355 -7.2407284 15.4974509
511 3 -11.4436248 -5.6864042 8.3163672
512 3 -15.2079975 -0.129528 16.4930477
513 1 -10.7460727 -10.1371889 27.4199619
514 1 -4.2750702 -9.5810666 22.1907792
515 1 -15.6193195 -14.1536138 24.3183856
516 1 -3.4181002 -11.9686832 30.4453049
517 1 -16.1802393 -7.328516 21.7548571
518 1 -12.0220332 -0.5641555 27.6817007
519 1 -9.2352457 -11.6096043 26.0478687
520 1 -15.5269175 -9.9587569 30.7545633
521 1 -7.3032713 -1.3820504 31.8714066
522 1 -8.3301868 -5.4244184 25.4299364
523 1 -4.5614519 -10.5534529 32.7411098
524 1 -12.8106637 -16.2791655 29.9429417
525 1 -14.4936435 -10.6723637 21.7533817
526 1 -2.0390186 -13.1564741 23.6995563
527 1 -13.7324562 -3.3565054 28.8656521
528 1 -10.407008 -9.9369197 33.7678032
529 1 -1.7333879 -0.2233524 19.520343
530 1 -0.7009658 -11.13799 30.7762432
531 1 -0.8055534 -15.0505204 28.6023931
532 1 -6.8741292 -14.7699921 28.9950943
533 1 -8.792798 -16.5792756 19.1155888
534 1 -16.5339099 -10.3784774 19.9340036
535 1 -4.2400083 -2.2358179 30.1054468
536 1 -9.9074049 -14.0855441 25.6683254
537 1 -14.7036578 -13.3067898 21.8256168
538 1 -0.7361679 -9.0293722 33.9549656
539 1 -0.459465 -13.8541698 25.6979122
540 1 -16.6632512 -12.960104 33.5630112
541 1 -10.1502061 -16.0335298 31.9603472
542 1 -9.4916639 -13.44386 32.4701967
543 1 -12.1609206 -12.9237485 21.3484964
544 1 -4.6104059 -5.3725614 34.3683395
545 1 -6.8289699 -16.067463 32.5946102
546 1 -5.7598133 -8.0376129 20.8866878
547 1 -0.7168254 -7.3151855 23.6023989
548 1 -3.1931505 -0.1502018 31.8190346
549 1 -4.5775213 -1.0441112 22.2580434
550 1 -7.9381265 -11.9686646 28.5290937
551 1 -13.4539946 -0.1721096 22.9482927
552 1 -1.3126106 -14.1283519 34.3745098
553 1 -10.7064247 -12.1288595 23.5919218
554 1 -11.6745939 -13.6986887 18.8041984
555 1 -9.8298478 -11.9441933 20.8208632
556 1 -5.8093051 -8.2935095 24.677331
557 1 -10.5618867 -0.296978 23.2714086
558 1 -7.2492132 -11.9246435 19.5129785
559 1 -2.421483 -1.1972999 33.9351635
560 1 -4.6340217 -0.0969963 27.881813
561 1 -6.9776096 -14.068757 22.8483214
562 1 -15.8255093 -10.4585932 33.6791134
563 1 -5.2847175 -9.9804535 30.5495643
564 1 -13.9923064 -8.0165014 19.7748399
565 1 -3.624526 -6.6998128 26.0579662
566 1 -4.0484247 -6.9672556 19.2703788
567 1 -8.8104696 -8.8108615 24.9448695
568 1 -16.1367674 -4.7664365 27.8203526
569 1 -10.161726 -6.4080504 29.4249334
570 1 -9.4572056 -10.0337448 22.6395173
571 1 -4.1006956 -16.5102436 20.5334113
572 1 -6.2238102 -16.4573576 18.8020897
573 1 -14.4620704 -3.9261446 34.4023247
574 1 -17.2090565 -11.7079467 24.2934704
575 1 -16.1103874 -0.2145271 19.4697864
576 1 -5.6317615 -5.8671283 23.2234922
577 1 -16.928666 -1.9809322 21.4636917
578 1 -17.0877304 -2.0053157 32.8938599
579 1 -14.1618712 -6.6975574 34.4014625
580 1 -3.6110067 -14.2787773 18.6740056
581 1 -6.4412974 -10.749577 21.7496171
582 1 -4.6274108 -12.0130248 19.8947055
583 1 -8.7847127 -5.5878915 17.4158908
584 1 -12.4873828 -14.4639076 32.0926619
585 1 -8.2032585 -16.2777003 27.1044321
586 1 -15.5482531 -13.8232502 27.4217148
587 1 -17.2060148 -15.5234535 20.7113891
588 1 -1.1121902 -8.5101346 19.309893
589 1 -4.5185737 -2.3341378 24.4150738
590 1 -8.5867776 -16.7495394 29.5671358
591 1 -13.7176551 -15.0669677 18.0682579
592 1 -12.4262724 -5.1564274 30.1086168
593 1 -14.57533 -2.575921 23.2868438
594 1 -15.571205 -2.5167608 18.9015231
595 1 -7.7658805 -1.8860445 19.1862168
596 1 -9.3553642 -2.396842 22.8711205
597 1 -8.9933204 -7.8385572 32.9467926
598 1 -0.5365867 -2.4376734 28.6941032
599 1 -4.4545678 -12.9521656 25.7687321
600 1 -15.0852348 -14.8891744 33.2130794
601 1 -4.9666767 -3.2579384 32.5721779
602 1 -3.749691 -7.0972786 23.014493
603 1 -2.4884195 -17.1892233 29.4048118
604 1 -4.6489677 -5.1006736 20.847791
605 1 -6.7494697 -12.6855511 33.0938616
606 1 -11.0418429 -4.0233717 28.2435876
607 1 -12.1391596 -11.95756 25.8162537
608 1 -11.6285696 -3.1353025 23.1379061
609 1 -6.4608372 -12.3354562 30.4567308
610 1 -11.6385841 -12.3753252 33.540905
611 1 -3.9431648 -9.8386268 25.5287208
612 1 -15.617665 -15.984348 22.4747791
613 1 -6.0248174 -8.4560194 32.7859364
614 1 -2.2650003 -15.1231637 21.3885393
615 1 -16.9605575 -15.6396149 18.2915186
616 1 -14.784249 -16.998667 31.4809036
617 1 -10.1228919 -7.4926004 27.1459188
618 1 -4.5500783 -12.4850072 22.7629199
619 1 -7.8582487 -4.6693572 22.8331347
620 1 -5.6053895 -15.2729919 26.2530718
621 1 -1.4988079 -4.5550165 26.8146152
622 1 -17.2984611 -4.323738 24.6244082
623 1 -11.4855499 -5.7472629 22.9722304
624 1 -14.770224 -9.0612878 23.6552286
625 1 -8.2938995 -0.4382724 34.3770523
626 1 -4.9463672 -11.9214758 28.27668
627 1 -2.0940284 -0.8806228 23.0366669
628 1 -1.8617372 -11.4882307 33.6624737
629 1 -0.997715 -2.9047632 18.5679257
630 1 -9.2279939 -0.9982948 27.3107624
631 1 -0.8725051 -9.4179624 25.8086128
632 1 -16.2038002 -0.7083797 23.7697635
633 1 -10.8741784 -7.5720396 17.8845791
634 1 -2.2028455 -11.9204421 18.95447
635 1 -2.9625005 -4.8326711 24.5375337
636 1 -7.0452661 -2.9435539 34.4383468
637 1 -0.0590019 -9.6913137 22.5047626
638 1 -13.2242675 -5.6887655 27.6275511
639 1 -0.3308182 -6.7398796 26.3053094
640 1 -6.5407228 -2.6360597 21.824996
641 1 -1.4038962 -2.019761 30.8697166
642 1 -11.0804605 -16.0608624 21.2122486
643 1 -2.9135904 -17.2616684 25.6289139
644 1 -8.4134292 -6.2684974 20.3532483
645 1 -11.3377986 -16.386177 25.5457535
646 1 -3.1139459 -9.4485382 28.5530958
647 1 -14.0935311 -1.5596122 20.8893089
648 1 -5.2572546 -0.5976085 33.8928967
649 1 -11.8343753 -17.1286088 18.7230362
650 1 -8.729969 -11.6624236 17.3498368
651 1 -11.795165 -10.2139311 21.7877212
652 1 -15.2144127 -0.9139309 28.9251919
653 1 -2.0667333 -6.1561136 34.5548134
654 1 -2.445549 -4.7949047 19.2779574
655 1 -5.0165014 -14.5329306 31.217843
656 1 -9.2847614 -13.9386592 29.6454849
657 1 -8.5881414 -0.9447574 24.8972487
658 1 -11.1088671 -4.5311784 33.9920521
659 1 -10.0802712 -3.3852396 25.5970774
660 1 -12.5453448 -16.7945536 33.563015
661 1 -12.7720103 -10.2850456 31.6538963
662 1 -6.5390481 -10.8042125 24.5490026
663 1 -17.0903212 -9.4441374 28.2647896
664 1 -0.2378654 -16.7981585 33.3950786
665 1 -10.9982609 -7.4822053 20.6986637
666 1 -9.0109987 -9.0047788 29.0311718
667 1 -10.2420873 -15.3533156 34.5672684
668 1 -3.5366458 -13.3395824 33.0816183
669 1 -6.7056427 -3.6874799 30.7448301
670 1 -11.8270225 -5.4462738 19.0542014
671 1 -6.5352611 -4.6521797 19.1167191
672 1 -13.8263216 -0.2465439 25.5954409
673 1 -6.4851245 -1.3203906 28.7010002
674 1 -7.9423875 -6.6211996 28.1948624
675 1 -16.9514871 -13.1479659 19.8578818
676 1 -6.7031135 -5.744173 32.6097317
677 1 -14.5546989 -12.3545574 31.938796
678 1 -15.5583949 -15.3828106 29.6990194
679 1 -15.6320267 -2.6370925 26.2569866
680 1 -2.0776004 -11.0444755 21.3413763
681 1 -11.5838232 -12.1144075 30.5794582
682 1 -14.8866035 -8.6335124 26.4905615
683 1 -10.0026683 -4.2387647 20.4467134
684 1 -2.4098186 -3.6833114 33.643259
685 1 -0.872507 -15.7624435 23.5820851
686 1 -13.2059974 -7.7998228 22.2762818
687 1 -5.7485265 -13.4567088 17.798235
688 1 -10.3540086 -1.304842 33.0304747
689 1 -2.9565754 -4.2618246 29.3179856
690 1 -6.8206157 -7.2637853 17.8922189
691 1 -1.283041 -8.7480382 31.1049719
692 1 -2.5802774 -14.7256543 26.5478582
693 1 -11.337554 -10.906043 18.5799525
694 1 -5.8220329 -0.3088436 25.0838552
695 1 -8.041418 -7.4469204 22.4418092
696 1 -16.588455 -13.1657715 29.7540407
697 1 -9.0013733 -2.1364536 29.9304523
698 1 -10.7891101 -12.7593774 28.0038385
699 1 -16.1293209 -11.0929684 26.4239168
700 1 -7.2932958 -7.2167978 30.618823
701 1 -1.0860977 -2.0006923 25.1507292
702 1 -5.7843809 -5.874444 26.7643051
703 1 -1.0297432 -7.3049583 28.9818935
704 1 -5.366806 -5.4968376 29.7529516
705 1 -16.2906552 -4.7632226 32.5180769
706 1 -3.2384252 -2.3212908 27.244257
707 1 -1.5934934 -6.5988531 21.2010984
708 1 -4.0771274 -14.5867578 29.0219717
709 1 -10.6218843 -15.4118552 27.8262758
710 1 -11.0515189 -8.616805 30.5955562
711 1 -8.3702296 -14.1588919 20.4150457
712 1 -13.6626462 -15.063179 20.6443348
713 1 -11.1495194 -0.8088016 30.4230127
714 1 -0.3026104 -5.2197132 30.4678583
715 1 -17.2012428 -4.8402509 21.9947758
716 1 -12.5170788 -2.7677812 18.9256164
717 1 -2.4474658 -3.5201501 21.9291902
718 1 -14.3609804 -11.8670501 24.1102715
719 1 -7.2337646 -13.0453605 26.5085153
720 1 -16.6459031 -7.4581174 32.5298204
721 1 -6.6670961 -3.3771248 25.3552742
722 1 -8.1902017 -3.7071275 27.6180639
723 1 -3.3470516 -16.531328 17.8059239
724 1 -8.1621866 -14.6173841 17.5173305
725 1 -3.7262268 -8.1812381 34.0077133
726 1 -3.4261036 -9.5476832 19.493155
727 1 -0.2989197 -16.6811581 30.737278
728 1 -14.0956287 -7.8654136 32.2442226
729 1 -5.5725984 -10.4368834 17.8008692
730 1 -15.7041894 -8.7329998 18.2160018
731 1 -10.6780128 -1.467121 20.770987
732 1 -5.8467168 -14.3789608 20.6284594
733 1 -2.346817 -9.2267379 23.5580292
734 1 -5.4384602 -3.5468187 27.7959099
735 1 -13.1023602 -9.5178403 34.2348634
736 1 -9.8806467 -2.628643 18.2402382
737 1 -15.8325351 -3.181097 30.1143694
738 1 -13.4306966 -13.78026 29.6461563
739 1 -13.4017408 -5.3971758 32.5826206
740 1 -5.9022369 -16.8733067 30.3017808
741 1 -9.7072191 -14.2337074 22.6147981
742 1 -13.3683748 -15.5740871 27.3351097
743 1 -12.8297166 -2.9405727 26.0047836
744 2 -12.7903599 -14.5517969 23.8635793
745 2 -14.2779309 -12.1706934 18.4120354
746 2 -14.0315125 -4.6191225 20.9630029
747 2 -13.1866684 -2.3102236 32.4203396
748 2 -8.4343156 -10.3643154 31.6602745
749 2 -15.2835567 -6.8813199 29.5869036
750 2 -4.3415184 -15.4062194 23.6160846
751 2 -4.416994 -2.403018 19.4026739
752 2 -11.5282735 -8.5924663 24.6213527
753 2 -13.9457936 -10.893917 28.500803
754 2 -7.6668214 -16.779443 21.9404669
755 2 -16.7759801 -16.8839331 26.7940235
756 2 -14.3576826 -5.9441213 24.4989052
757 2 -16.7465022 -5.7534208 18.6074518
758 2 -1.4519462 -14.1105709 31.1940832