ITEM: TIMESTEP
0
ITEM: NUMBER OF ATOMS
6912
ITEM: BOX BOUNDS pp pp pp
-17.3196182 34.6392364
-17.3196182 34.6392364
-17.3196182 34.6392364
ITEM: ATOMS x y z type id
-10.7460727 -10.1371889 -7.2192745 1 1
-4.2750702 -9.5810666 -12.4484572 1 2
-15.6193195 -14.1536138 -10.3208508 1 3
-3.4181002 -11.9686832 -4.1939315 1 4
-16.1802393 -7.328516 -12.8843793 1 5
-12.0220332 -0.5641555 -6.9575357 1 6
-9.2352457 -11.6096043 -8.5913677 1 7
-15.5269175 -9.9587569 -3.8846731 1 8
-7.3032713 -1.3820504 -2.7678298 1 9
-8.3301868 -5.4244184 -9.2093 1 10
-4.5614519 -10.5534529 -1.8981266 1 11
-12.8106637 -16.2791655 -4.6962947 1 12
-14.4936435 -10.6723637 -12.8858547 1 13
-2.0390186 -13.1564741 -10.9396801 1 14
-13.7324562 -3.3565054 -5.7735843 1 15
-10.407008 -9.9369197 -0.8714332 1 16
-1.7333879 -0.2233524 -15.1188934 1 17
-0.7009658 -11.13799 -3.8629932 1 18
-0.8055534 -15.0505204 -6.0368433 1 19
-6.8741292 -14.7699921 -5.6441421 1 20
-8.792798 -16.5792756 -15.5236476 1 21
-16.5339099 -10.3784774 -14.7052328 1 22
-4.2400083 -2.2358179 -4.5337896 1 23
-9.9074049 -14.0855441 -8.970911 1 24
-14.7036578 -13.3067898 -12.8136196 1 25
-0.7361679 -9.0293722 -0.6842708 1 26
-0.459465 -13.8541698 -8.9413242 1 27
-16.6632512 -12.960104 -1.0762252 1 28
-10.1502061 -16.0335298 -2.6788892 1 29
-9.4916639 -13.44386 -2.1690397 1 30
-12.1609206 -12.9237485 -13.29074 1 31
-4.6104059 -5.3725614 -0.2708969 1 32
-6.8289699 -16.067463 -2.0446262 1 33
-5.7598133 -8.0376129 -13.7525486 1 34
-0.7168254 -7.3151855 -11.0368375 1 35
-3.1931505 -0.1502018 -2.8202018 1 36
-4.5775213 -1.0441112 -12.381193 1 37
-7.9381265 -11.9686646 -6.1101427 1 38
-13.4539946 -0.1721096 -11.6909437 1 39
-1.3126106 -14.1283519 -0.2647266 1 40
-10.7064247 -12.1288595 -11.0473146 1 41
-11.6745939 -13.6986887 -15.835038 1 42
-9.8298478 -11.9441933 -13.8183732 1 43
-5.8093051 -8.2935095 -9.9619054 1 44
-10.5618867 -0.296978 -11.3678278 1 45
-7.2492132 -11.9246435 -15.1262579 1 46
-2.421483 -1.1972999 -0.7040729 1 47
-4.6340217 -0.0969963 -6.7574234 1 48
-6.9776096 -14.068757 -11.790915 1 49
-15.8255093 -10.4585932 -0.960123 1 50
-5.2847175 -9.9804535 -4.0896721 1 51
-13.9923064 -8.0165014 -14.8643965 1 52
-3.624526 -6.6998128 -8.5812702 1 53
-4.0484247 -6.9672556 -15.3688576 1 54
-8.8104696 -8.8108615 -9.6943669 1 55
-16.1367674 -4.7664365 -6.8188838 1 56
-10.161726 -6.4080504 -5.214303 1 57
-9.4572056 -10.0337448 -11.9997191 1 58
-4.1006956 -16.5102436 -14.1058251 1 59
-6.2238102 -16.4573576 -15.8371467 1 60
-14.4620704 -3.9261446 -0.2369117 1 61
-17.2090565 -11.7079467 -10.345766 1 62
-16.1103874 -0.2145271 -15.16945 1 63
-5.6317615 -5.8671283 -11.4157442 1 64
-16.928666 -1.9809322 -13.1755447 1 65
-17.0877304 -2.0053157 -1.7453765 1 66
-14.1618712 -6.6975574 -0.2377739 1 67
-3.6110067 -14.2787773 -15.9652308 1 68
-6.4412974 -10.749577 -12.8896193 1 69
-4.6274108 -12.0130248 -14.7445309 1 70
-8.7847127 -5.5878915 -17.2233456 1 71
-12.4873828 -14.4639076 -2.5465745 1 72
-8.2032585 -16.2777003 -7.5348043 1 73
-15.5482531 -13.8232502 -7.2175216 1 74
-17.2060148 -15.5234535 -13.9278473 1 75
-1.1121902 -8.5101346 -15.3293434 1 76
-4.5185737 -2.3341378 -10.2241626 1 77
-8.5867776 -16.7495394 -5.0721006 1 78
-13.7176551 -15.0669677 -16.5709785 1 79
-12.4262724 -5.1564274 -4.5306196 1 80
-14.57533 -2.575921 -11.3523926 1 81
-15.571205 -2.5167608 -15.7377133 1 82
-7.7658805 -1.8860445 -15.4530196 1 83
-9.3553642 -2.396842 -11.7681159 1 84
-8.9933204 -7.8385572 -1.6924438 1 85
-0.5365867 -2.4376734 -5.9451332 1 86
-4.4545678 -12.9521656 -8.8705043 1 87
-15.0852348 -14.8891744 -1.426157 1 88
-4.9666767 -3.2579384 -2.0670585 1 89
-3.749691 -7.0972786 -11.6247434 1 90
-2.4884195 -17.1892233 -5.2344246 1 91
-4.6489677 -5.1006736 -13.7914454 1 92
-6.7494697 -12.6855511 -1.5453748 1 93
-11.0418429 -4.0233717 -6.3956488 1 94
-12.1391596 -11.95756 -8.8229827 1 95
-11.6285696 -3.1353025 -11.5013303 1 96
-6.4608372 -12.3354562 -4.1825056 1 97
-11.6385841 -12.3753252 -1.0983314 1 98
-3.9431648 -9.8386268 -9.1105156 1 99
-15.617665 -15.984348 -12.1644573 1 100
-6.0248174 -8.4560194 -1.8533 1 101
-2.2650003 -15.1231637 -13.2506971 1 102
-16.9605575 -15.6396149 -16.3477178 1 103
-14.784249 -16.998667 -3.1583328 1 104
-10.1228919 -7.4926004 -7.4933176 1 105
-4.5500783 -12.4850072 -11.8763165 1 106
-7.8582487 -4.6693572 -11.8061017 1 107
-5.6053895 -15.2729919 -8.3861646 1 108
-1.4988079 -4.5550165 -7.8246212 1 109
-17.2984611 -4.323738 -10.0148282 1 110
-11.4855499 -5.7472629 -11.667006 1 111
-14.770224 -9.0612878 -10.9840078 1 112
-8.2938995 -0.4382724 -0.2621841 1 113
-4.9463672 -11.9214758 -6.3625564 1 114
-2.0940284 -0.8806228 -11.6025695 1 115
-1.8617372 -11.4882307 -0.9767627 1 116
-0.997715 -2.9047632 -16.0713107 1 117
-9.2279939 -0.9982948 -7.328474 1 118
-0.8725051 -9.4179624 -8.8306236 1 119
-16.2038002 -0.7083797 -10.8694729 1 120
-10.8741784 -7.5720396 -16.7546573 1 121
-2.2028455 -11.9204421 -15.6847664 1 122
-2.9625005 -4.8326711 -10.1017027 1 123
-7.0452661 -2.9435539 -0.2008896 1 124
-0.0590019 -9.6913137 -12.1344738 1 125
-13.2242675 -5.6887655 -7.0116853 1 126
-0.3308182 -6.7398796 -8.333927 1 127
-6.5407228 -2.6360597 -12.8142404 1 128
-1.4038962 -2.019761 -3.7695198 1 129
-11.0804605 -16.0608624 -13.4269878 1 130
-2.9135904 -17.2616684 -9.0103225 1 131
-8.4134292 -6.2684974 -14.2859881 1 132
-11.3377986 -16.386177 -9.0934829 1 133
-3.1139459 -9.4485382 -6.0861406 1 134
-14.0935311 -1.5596122 -13.7499275 1 135
-5.2572546 -0.5976085 -0.7463397 1 136
-11.8343753 -17.1286088 -15.9162002 1 137
-8.729969 -11.6624236 -17.2893996 1 138
-11.795165 -10.2139311 -12.8515152 1 139
-15.2144127 -0.9139309 -5.7140445 1 140
-2.0667333 -6.1561136 -0.084423 1 141
-2.445549 -4.7949047 -15.361279 1 142
-5.0165014 -14.5329306 -3.4213934 1 143
-9.2847614 -13.9386592 -4.9937515 1 144
-8.5881414 -0.9447574 -9.7419877 1 145
-11.1088671 -4.5311784 -0.6471843 1 146
-10.0802712 -3.3852396 -9.042159 1 147
-12.5453448 -16.7945536 -1.0762214 1 148
-12.7720103 -10.2850456 -2.9853401 1 149
-6.5390481 -10.8042125 -10.0902338 1 150
-17.0903212 -9.4441374 -6.3744468 1 151
-0.2378654 -16.7981585 -1.2441578 1 152
-10.9982609 -7.4822053 -13.9405727 1 153
-9.0109987 -9.0047788 -5.6080646 1 154
-10.2420873 -15.3533156 -0.071968 1 155
-3.5366458 -13.3395824 -1.5576181 1 156
-6.7056427 -3.6874799 -3.8944063 1 157
-11.8270225 -5.4462738 -15.585035 1 158
-6.5352611 -4.6521797 -15.5225173 1 159
-13.8263216 -0.2465439 -9.0437955 1 160
-6.4851245 -1.3203906 -5.9382362 1 161
-7.9423875 -6.6211996 -6.444374 1 162
-16.9514871 -13.1479659 -14.7813546 1 163
-6.7031135 -5.744173 -2.0295047 1 164
-14.5546989 -12.3545574 -2.7004404 1 165
-15.5583949 -15.3828106 -4.940217 1 166
-15.6320267 -2.6370925 -8.3822498 1 167
-2.0776004 -11.0444755 -13.2978601 1 168
-11.5838232 -12.1144075 -4.0597782 1 169
-14.8866035 -8.6335124 -8.1486749 1 170
-10.0026683 -4.2387647 -14.192523 1 171
-2.4098186 -3.6833114 -0.9959774 1 172
-0.872507 -15.7624435 -11.0571513 1 173
-13.2059974 -7.7998228 -12.3629546 1 174
-5.7485265 -13.4567088 -16.8410014 1 175
-10.3540086 -1.304842 -1.6087617 1 176
-2.9565754 -4.2618246 -5.3212508 1 177
-6.8206157 -7.2637853 -16.7470175 1 178
-1.283041 -8.7480382 -3.5342645 1 179
-2.5802774 -14.7256543 -8.0913782 1 180
-11.337554 -10.906043 -16.0592839 1 181
-5.8220329 -0.3088436 -9.5553812 1 182
-8.041418 -7.4469204 -12.1974272 1 183
-16.588455 -13.1657715 -4.8851957 1 184
-9.0013733 -2.1364536 -4.7087841 1 185
-10.7891101 -12.7593774 -6.6353979 1 186
-16.1293209 -11.0929684 -8.2153196 1 187
-7.2932958 -7.2167978 -4.0204134 1 188
-1.0860977 -2.0006923 -9.4885072 1 189
-5.7843809 -5.874444 -7.8749313 1 190
-1.0297432 -7.3049583 -5.6573429 1 191
-5.366806 -5.4968376 -4.8862848 1 192
-16.2906552 -4.7632226 -2.1211595 1 193
-3.2384252 -2.3212908 -7.3949794 1 194
-1.5934934 -6.5988531 -13.438138 1 195
-4.0771274 -14.5867578 -5.6172647 1 196
-10.6218843 -15.4118552 -6.8129606 1 197
-11.0515189 -8.616805 -4.0436802 1 198
-8.3702296 -14.1588919 -14.2241907 1 199
-13.6626462 -15.063179 -13.9949016 1 200
-11.1495194 -0.8088016 -4.2162237 1 201
-0.3026104 -5.2197132 -4.1713781 1 202
-17.2012428 -4.8402509 -12.6444606 1 203
-12.5170788 -2.7677812 -15.71362 1 204
-2.4474658 -3.5201501 -12.7100462 1 205
-14.3609804 -11.8670501 -10.5289649 1 206
-7.2337646 -13.0453605 -8.1307211 1 207
-16.6459031 -7.4581174 -2.109416 1 208
-6.6670961 -3.3771248 -9.2839622 1 209
-8.1902017 -3.7071275 -7.0211725 1 210
-3.3470516 -16.531328 -16.8333125 1 211
-8.1621866 -14.6173841 -17.1219059 1 212
-3.7262268 -8.1812381 -0.6315231 1 213
-3.4261036 -9.5476832 -15.1460814 1 214
-0.2989197 -16.6811581 -3.9019584 1 215
-14.0956287 -7.8654136 -2.3950138 1 216
-5.5725984 -10.4368834 -16.8383672 1 217
-15.7041894 -8.7329998 -16.4232346 1 218
-10.6780128 -1.467121 -13.8682494 1 219
-5.8467168 -14.3789608 -14.010777 1 220
-2.346817 -9.2267379 -11.0812072 1 221
-5.4384602 -3.5468187 -6.8433265 1 222
-13.1023602 -9.5178403 -0.404373 1 223
-9.8806467 -2.628643 -16.3989982 1 224
-15.8325351 -3.181097 -4.524867 1 225
-13.4306966 -13.78026 -4.9930801 1 226
-13.4017408 -5.3971758 -2.0566158 1 227
-5.9022369 -16.8733067 -4.3374556 1 228
-9.7072191 -14.2337074 -12.0244383 1 229
-13.3683748 -15.5740871 -7.3041267 1 230
-12.8297166 -2.9405727 -8.6344528 1 231
-12.7903599 -14.5517969 -10.7756571 1 232
-14.2779309 -12.1706934 -16.227201 1 233
-14.0315125 -4.6191225 -13.6762335 1 234
-13.1866684 -2.3102236 -2.2188968 1 235
-8.4343156 -10.3643154 -2.9789619 1 236
-15.2835567 -6.8813199 -5.0523328 2 237
-4.3415184 -15.4062194 -11.0231518 2 238
-4.416994 -2.403018 -15.2365625 2 239
-11.5282735 -8.5924663 -10.0178837 2 240
-13.9457936 -10.893917 -6.1384334 2 241
-7.6668214 -16.779443 -12.6987695 2 242
-16.7759801 -16.8839331 -7.8452129 2 243
-14.3576826 -5.9441213 -10.1403312 2 244
-16.7465022 -5.7534208 -16.0317846 2 245
-1.4519462 -14.1105709 -3.4451532 2 246
-3.3861828 -6.3280458 -2.9511499 2 247
-1.396264 -12.26058 -6.901186 2 248
-6.189166 -9.0581493 -7.1086902 2 249
-8.2821827 -9.2827129 -15.0621388 2 250
-9.5120043 -4.2368374 -2.9044542 2 251
-7.5416765 -15.7524343 -9.8345894 2 252
-12.5102472 -7.7038354 -6.2096042 2 253
-11.5209355 -7.2407284 -1.8221673 2 254
-11.4436248 -5.6864042 -9.003251 2 255
-15.2079975 -0.129528 -0.8265705 2 256
-10.7460727 -10.1371889 10.1003437 1 257
-4.2750702 -9.5810666 4.871161 1 258
-15.6193195 -14.1536138 6.9987674 1 259
-3.4181002 -11.9686832 13.1256867 1 260
-16.1802393 -7.328516 4.4352389 1 261
-12.0220332 -0.5641555 10.3620825 1 262
-9.2352457 -11.6096043 8.7282505 1 263
-15.5269175 -9.9587569 13.4349451 1 264
-7.3032713 -1.3820504 14.5517884 1 265
-8.3301868 -5.4244184 8.1103182 1 266
-4.5614519 -10.5534529 15.4214916 1 267
-12.8106637 -16.2791655 12.6233235 1 268
-14.4936435 -10.6723637 4.4337635 1 269
-2.0390186 -13.1564741 6.3799381 1 270
-13.7324562 -3.3565054 11.5460339 1 271
-10.407008 -9.9369197 16.448185 1 272
-1.7333879 -0.2233524 2.2007248 1 273
-0.7009658 -11.13799 13.456625 1 274
-0.8055534 -15.0505204 11.2827749 1 275
-6.8741292 -14.7699921 11.6754761 1 276
-8.792798 -16.5792756 1.7959706 1 277
-16.5339099 -10.3784774 2.6143854 1 278
-4.2400083 -2.2358179 12.7858286 1 279
-9.9074049 -14.0855441 8.3487072 1 280
-14.7036578 -13.3067898 4.5059986 1 281
-0.7361679 -9.0293722 16.6353474 1 282
-0.459465 -13.8541698 8.378294 1 283
-16.6632512 -12.960104 16.243393 1 284
-10.1502061 -16.0335298 14.640729 1 285
-9.4916639 -13.44386 15.1505785 1 286
-12.1609206 -12.9237485 4.0288782 1 287
-4.6104059 -5.3725614 17.0487213 1 288
-6.8289699 -16.067463 15.274992 1 289
-5.7598133 -8.0376129 3.5670696 1 290
-0.7168254 -7.3151855 6.2827807 1 291
-3.1931505 -0.1502018 14.4994164 1 292
-4.5775213 -1.0441112 4.9384252 1 293
-7.9381265 -11.9686646 11.2094755 1 294
-13.4539946 -0.1721096 5.6286745 1 295
-1.3126106 -14.1283519 17.0548916 1 296
-10.7064247 -12.1288595 6.2723036 1 297
-11.6745939 -13.6986887 1.4845802 1 298
-9.8298478 -11.9441933 3.501245 1 299
-5.8093051 -8.2935095 7.3577128 1 300
-10.5618867 -0.296978 5.9517904 1 301
-7.2492132 -11.9246435 2.1933603 1 302
-2.421483 -1.1972999 16.6155453 1 303
-4.6340217 -0.0969963 10.5621948 1 304
-6.9776096 -14.068757 5.5287032 1 305
-15.8255093 -10.4585932 16.3594952 1 306
-5.2847175 -9.9804535 13.2299461 1 307
-13.9923064 -8.0165014 2.4552217 1 308
-3.624526 -6.6998128 8.738348 1 309
-4.0484247 -6.9672556 1.9507606 1 310
-8.8104696 -8.8108615 7.6252513 1 311
-16.1367674 -4.7664365 10.5007344 1 312
-10.161726 -6.4080504 12.1053152 1 313
-9.4572056 -10.0337448 5.3198991 1 314
-4.1006956 -16.5102436 3.2137931 1 315
-6.2238102 -16.4573576 1.4824715 1 316
-14.4620704 -3.9261446 17.0827065 1 317
-17.2090565 -11.7079467 6.9738522 1 318
-16.1103874 -0.2145271 2.1501682 1 319
-5.6317615 -5.8671283 5.903874 1 320
-16.928666 -1.9809322 4.1440735 1 321
-17.0877304 -2.0053157 15.5742417 1 322
-14.1618712 -6.6975574 17.0818443 1 323
-3.6110067 -14.2787773 1.3543874 1 324
-6.4412974 -10.749577 4.4299989 1 325
-4.6274108 -12.0130248 2.5750873 1 326
-8.7847127 -5.5878915 0.0962726 1 327
-12.4873828 -14.4639076 14.7730437 1 328
-8.2032585 -16.2777003 9.7848139 1 329
-15.5482531 -13.8232502 10.1020966 1 330
-17.2060148 -15.5234535 3.3917709 1 331
-1.1121902 -8.5101346 1.9902748 1 332
-4.5185737 -2.3341378 7.0954556 1 333
-8.5867776 -16.7495394 12.2475176 1 334
-13.7176551 -15.0669677 0.7486397 1 335
-12.4262724 -5.1564274 12.7889986 1 336
-14.57533 -2.575921 5.9672256 1 337
-15.571205 -2.5167608 1.5819049 1 338
-7.7658805 -1.8860445 1.8665986 1 339
-9.3553642 -2.396842 5.5515023 1 340
-8.9933204 -7.8385572 15.6271744 1 341
-0.5365867 -2.4376734 11.374485 1 342
-4.4545678 -12.9521656 8.4491139 1 343
-15.0852348 -14.8891744 15.8934612 1 344
-4.9666767 -3.2579384 15.2525597 1 345
-3.749691 -7.0972786 5.6948748 1 346
-2.4884195 -17.1892233 12.0851936 1 347
-4.6489677 -5.1006736 3.5281728 1 348
-6.7494697 -12.6855511 15.7742434 1 349
-11.0418429 -4.0233717 10.9239694 1 350
-12.1391596 -11.95756 8.4966355 1 351
-11.6285696 -3.1353025 5.8182879 1 352
-6.4608372 -12.3354562 13.1371126 1 353
-11.6385841 -12.3753252 16.2212868 1 354
-3.9431648 -9.8386268 8.2091026 1 355
-15.617665 -15.984348 5.1551609 1 356
-6.0248174 -8.4560194 15.4663182 1 357
-2.2650003 -15.1231637 4.0689211 1 358
-16.9605575 -15.6396149 0.9719004 1 359
-14.784249 -16.998667 14.1612854 1 360
-10.1228919 -7.4926004 9.8263006 1 361
-4.5500783 -12.4850072 5.4433017 1 362
-7.8582487 -4.6693572 5.5135165 1 363
-5.6053895 -15.2729919 8.9334536 1 364
-1.4988079 -4.5550165 9.494997 1 365
-17.2984611 -4.323738 7.30479 1 366
-11.4855499 -5.7472629 5.6526122 1 367
-14.770224 -9.0612878 6.3356104 1 368
-8.2938995 -0.4382724 17.0574341 1 369
-4.9463672 -11.9214758 10.9570618 1 370
-2.0940284 -0.8806228 5.7170487 1 371
-1.8617372 -11.4882307 16.3428555 1 372
-0.997715 -2.9047632 1.2483075 1 373
-9.2279939 -0.9982948 9.9911442 1 374
-0.8725051 -9.4179624 8.4889946 1 375
-16.2038002 -0.7083797 6.4501453 1 376
-10.8741784 -7.5720396 0.5649609 1 377
-2.2028455 -11.9204421 1.6348518 1 378
-2.9625005 -4.8326711 7.2179155 1 379
-7.0452661 -2.9435539 17.1187286 1 380
-0.0590019 -9.6913137 5.1851444 1 381
-13.2242675 -5.6887655 10.3079329 1 382
-0.3308182 -6.7398796 8.9856912 1 383
-6.5407228 -2.6360597 4.5053778 1 384
-1.4038962 -2.019761 13.5500984 1 385
-11.0804605 -16.0608624 3.8926304 1 386
-2.9135904 -17.2616684 8.3092957 1 387
-8.4134292 -6.2684974 3.0336301 1 388
-11.3377986 -16.386177 8.2261353 1 389
-3.1139459 -9.4485382 11.2334776 1 390
-14.0935311 -1.5596122 3.5696907 1 391
-5.2572546 -0.5976085 16.5732785 1 392
-11.8343753 -17.1286088 1.403418 1 393
-8.729969 -11.6624236 0.0302186 1 394
-11.795165 -10.2139311 4.468103 1 395
-15.2144127 -0.9139309 11.6055737 1 396
-2.0667333 -6.1561136 17.2351952 1 397
-2.445549 -4.7949047 1.9583392 1 398
-5.0165014 -14.5329306 13.8982248 1 399
-9.2847614 -13.9386592 12.3258667 1 400
-8.5881414 -0.9447574 7.5776305 1 401
-11.1088671 -4.5311784 16.6724339 1 402
-10.0802712 -3.3852396 8.2774592 1 403
-12.5453448 -16.7945536 16.2433968 1 404
-12.7720103 -10.2850456 14.3342781 1 405
-6.5390481 -10.8042125 7.2293844 1 406
-17.0903212 -9.4441374 10.9451714 1 407
-0.2378654 -16.7981585 16.0754604 1 408
-10.9982609 -7.4822053 3.3790455 1 409
-9.0109987 -9.0047788 11.7115536 1 410
-10.2420873 -15.3533156 17.2476502 1 411
-3.5366458 -13.3395824 15.7620001 1 412
-6.7056427 -3.6874799 13.4252119 1 413
-11.8270225 -5.4462738 1.7345832 1 414
-6.5352611 -4.6521797 1.7971009 1 415
-13.8263216 -0.2465439 8.2758227 1 416
-6.4851245 -1.3203906 11.381382 1 417
-7.9423875 -6.6211996 10.8752442 1 418
-16.9514871 -13.1479659 2.5382636 1 419
-6.7031135 -5.744173 15.2901135 1 420
-14.5546989 -12.3545574 14.6191778 1 421
-15.5583949 -15.3828106 12.3794012 1 422
-15.6320267 -2.6370925 8.9373684 1 423
-2.0776004 -11.0444755 4.0217581 1 424
-11.5838232 -12.1144075 13.25984 1 425
-14.8866035 -8.6335124 9.1709433 1 426
-10.0026683 -4.2387647 3.1270952 1 427
-2.4098186 -3.6833114 16.3236408 1 428
-0.872507 -15.7624435 6.2624669 1 429
-13.2059974 -7.7998228 4.9566636 1 430
-5.7485265 -13.4567088 0.4786168 1 431
-10.3540086 -1.304842 15.7108565 1 432
-2.9565754 -4.2618246 11.9983674 1 433
-6.8206157 -7.2637853 0.5726007 1 434
-1.283041 -8.7480382 13.7853537 1 435
-2.5802774 -14.7256543 9.22824 1 436
-11.337554 -10.906043 1.2603343 1 437
-5.8220329 -0.3088436 7.764237 1 438
-8.041418 -7.4469204 5.122191 1 439
-16.588455 -13.1657715 12.4344225 1 440
-9.0013733 -2.1364536 12.6108341 1 441
-10.7891101 -12.7593774 10.6842203 1 442
-16.1293209 -11.0929684 9.1042986 1 443
-7.2932958 -7.2167978 13.2992048 1 444
-1.0860977 -2.0006923 7.831111 1 445
-5.7843809 -5.874444 9.4446869 1 446
-1.0297432 -7.3049583 11.6622753 1 447
-5.366806 -5.4968376 12.4333334 1 448
-16.2906552 -4.7632226 15.1984587 1 449
-3.2384252 -2.3212908 9.9246388 1 450
-1.5934934 -6.5988531 3.8814802 1 451
-4.0771274 -14.5867578 11.7023535 1 452
-10.6218843 -15.4118552 10.5066576 1 453
-11.0515189 -8.616805 13.275938 1 454
-8.3702296 -14.1588919 3.0954275 1 455
-13.6626462 -15.063179 3.3247166 1 456
-11.1495194 -0.8088016 13.1033945 1 457
-0.3026104 -5.2197132 13.1482401 1 458
-17.2012428 -4.8402509 4.6751576 1 459
-12.5170788 -2.7677812 1.6059982 1 460
-2.4474658 -3.5201501 4.609572 1 461
-14.3609804 -11.8670501 6.7906533 1 462
-7.2337646 -13.0453605 9.1888971 1 463
-16.6459031 -7.4581174 15.2102022 1 464
-6.6670961 -3.3771248 8.035656 1 465
-8.1902017 -3.7071275 10.2984457 1 466
-3.3470516 -16.531328 0.4863057 1 467
-8.1621866 -14.6173841 0.1977123 1 468
-3.7262268 -8.1812381 16.6880951 1 469
-3.4261036 -9.5476832 2.1735368 1 470
-0.2989197 -16.6811581 13.4176598 1 471
-14.0956287 -7.8654136 14.9246044 1 472
-5.5725984 -10.4368834 0.481251 1 473
-15.7041894 -8.7329998 0.8963836 1 474
-10.6780128 -1.467121 3.4513688 1 475
-5.8467168 -14.3789608 3.3088412 1 476
-2.346817 -9.2267379 6.238411 1 477
-5.4384602 -3.5468187 10.4762917 1 478
-13.1023602 -9.5178403 16.9152452 1 479
-9.8806467 -2.628643 0.92062 1 480
-15.8325351 -3.181097 12.7947512 1 481
-13.4306966 -13.78026 12.3265381 1 482
-13.4017408 -5.3971758 15.2630024 1 483
-5.9022369 -16.8733067 12.9821626 1 484
-9.7072191 -14.2337074 5.2951799 1 485
-13.3683748 -15.5740871 10.0154915 1 486
-12.8297166 -2.9405727 8.6851654 1 487
-12.7903599 -14.5517969 6.5439611 1 488
-14.2779309 -12.1706934 1.0924172 1 489
-14.0315125 -4.6191225 3.6433847 1 490
-13.1866684 -2.3102236 15.1007214 1 491
-8.4343156 -10.3643154 14.3406563 1 492
-15.2835567 -6.8813199 12.2672854 2 493
-4.3415184 -15.4062194 6.2964664 2 494
-4.416994 -2.403018 2.0830557 2 495
-11.5282735 -8.5924663 7.3017345 2 496
-13.9457936 -10.893917 11.1811848 2 497
-7.6668214 -16.779443 4.6208487 2 498
-16.7759801 -16.8839331 9.4744053 2 499
-14.3576826 -5.9441213 7.179287 2 500
-16.7465022 -5.7534208 1.2878336 2 501
-1.4519462 -14.1105709 13.874465 2 502
-3.3861828 -6.3280458 14.3684683 2 503
-1.396264 -12.26058 10.4184322 2 504
-6.189166 -9.0581493 10.210928 2 505
-8.2821827 -9.2827129 2.2574794 2 506
-9.5120043 -4.2368374 14.415164 2 507
-7.5416765 -15.7524343 7.4850288 2 508
-12.5102472 -7.7038354 11.110014 2 509
-11.5209355 -7.2407284 15.4974509 2 510
-11.4436248 -5.6864042 8.3163672 2 511
-15.2079975 -0.129528 16.4930477 2 512
-10.7460727 -10.1371889 27.4199619 1 513
-4.2750702 -9.5810666 22.1907792 1 514
-15.6193195 -14.1536138 24.3183856 1 515
-3.4181002 -11.9686832 30.4453049 1 516
-16.1802393 -7.328516 21.7548571 1 517
-12.0220332 -0.5641555 27.6817007 1 518
-9.2352457 -11.6096043 26.0478687 1 519
-15.5269175 -9.9587569 30.7545633 1 520
-7.3032713 -1.3820504 31.8714066 1 521
-8.3301868 -5.4244184 25.4299364 1 522
-4.5614519 -10.5534529 32.7411098 1 523
-12.8106637 -16.2791655 29.9429417 1 524
-14.4936435 -10.6723637 21.7533817 1 525
-2.0390186 -13.1564741 23.6995563 1 526
-13.7324562 -3.3565054 28.8656521 1 527
-10.407008 -9.9369197 33.7678032 1 528
-1.7333879 -0.2233524 19.520343 1 529
-0.7009658 -11.13799 30.7762432 1 530
-0.8055534 -15.0505204 28.6023931 1 531
-6.8741292 -14.7699921 28.9950943 1 532
-8.792798 -16.5792756 19.1155888 1 533
-16.5339099 -10.3784774 19.9340036 1 534
-4.2400083 -2.2358179 30.1054468 1 535
-9.9074049 -14.0855441 25.6683254 1 536
-14.7036578 -13.3067898 21.8256168 1 537
-0.7361679 -9.0293722 33.9549656 1 538
-0.459465 -13.8541698 25.6979122 1 539
-16.6632512 -12.960104 33.5630112 1 540
-10.1502061 -16.0335298 31.9603472 1 541
-9.4916639 -13.44386 32.4701967 1 542
-12.1609206 -12.9237485 21.3484964 1 543
-4.6104059 -5.3725614 34.3683395 1 544
-6.8289699 -16.067463 32.5946102 1 545
-5.7598133 -8.0376129 20.8866878 1 546
-0.7168254 -7.3151855 23.6023989 1 547
-3.1931505 -0.1502018 31.8190346 1 548
-4.5775213 -1.0441112 22.2580434 1 549
-7.9381265 -11.9686646 28.5290937 1 550
-13.4539946 -0.1721096 22.9482927 1 551
-1.3126106 -14.1283519 34.3745098 1 552
-10.7064247 -12.1288595 23.5919218 1 553
-11.6745939 -13.6986887 18.8041984 1 554
-9.8298478 -11.9441933 20.8208632 1 555
-5.8093051 -8.2935095 24.677331 1 556
-10.5618867 -0.296978 23.2714086 1 557
-7.2492132 -11.9246435 19.5129785 1 558
-2.421483 -1.1972999 33.9351635 1 559
-4.6340217 -0.0969963 27.881813 1 560
-6.9776096 -14.068757 22.8483214 1 561
-15.8255093 -10.4585932 33.6791134 1 562
-5.2847175 -9.9804535 30.5495643 1 563
-13.9923064 -8.0165014 19.7748399 1 564
-3.624526 -6.6998128 26.0579662 1 565
-4.0484247 -6.9672556 19.2703788 1 566
-8.8104696 -8.8108615 24.9448695 1 567
-16.1367674 -4.7664365 27.8203526 1 568
-10.161726 -6.4080504 29.4249334 1 569
-9.4572056 -10.0337448 22.6395173 1 570
-4.1006956 -16.5102436 20.5334113 1 571
-6.2238102 -16.4573576 18.8020897 1 572
-14.4620704 -3.9261446 34.4023247 1 573
-17.2090565 -11.7079467 24.2934704 1 574
-16.1103874 -0.2145271 19.4697864 1 575
-5.6317615 -5.8671283 23.2234922 1 576
-16.928666 -1.9809322 21.4636917 1 577
-17.0877304 -2.0053157 32.8938599 1 578
-14.1618712 -6.6975574 34.4014625 1 579
-3.6110067 -14.2787773 18.6740056 1 580
-6.4412974 -10.749577 21.7496171 1 581
-4.6274108 -12.0130248 19.8947055 1 582
-8.7847127 -5.5878915 17.4158908 1 583
-12.4873828 -14.4639076 32.0926619 1 584
-8.2032585 -16.2777003 27.1044321 1 585
-15.5482531 -13.8232502 27.4217148 1 586
-17.2060148 -15.5234535 20.7113891 1 587
-1.1121902 -8.5101346 19.309893 1 588
-4.5185737 -2.3341378 24.4150738 1 589
-8.5867776 -16.7495394 29.5671358 1 590
-13.7176551 -15.0669677 18.0682579 1 591
-12.4262724 -5.1564274 30.1086168 1 592
-14.57533 -2.575921 23.2868438 1 593
-15.571205 -2.5167608 18.9015231 1 594
-7.7658805 -1.8860445 19.1862168 1 595
-9.3553642 -2.396842 22.8711205 1 596
-8.9933204 -7.8385572 32.9467926 1 597
-0.5365867 -2.4376734 28.6941032 1 598
-4.4545678 -12.9521656 25.7687321 1 599
-15.0852348 -14.8891744 33.2130794 1 600
-4.9666767 -3.2579384 32.5721779 1 601
-3.749691 -7.0972786 23.014493 1 602
-2.4884195 -17.1892233 29.4048118 1 603
-4.6489677 -5.1006736 20.847791 1 604
-6.7494697 -12.6855511 33.0938616 1 605
-11.0418429 -4.0233717 28.2435876 1 606
-12.1391596 -11.95756 25.8162537 1 607
-11.6285696 -3.1353025 23.1379061 1 608
-6.4608372 -12.3354562 30.4567308 1 609
-11.6385841 -12.3753252 33.540905 1 610
-3.9431648 -9.8386268 25.5287208 1 611
-15.617665 -15.984348 22.4747791 1 612
-6.0248174 -8.4560194 32.7859364 1 613
-2.2650003 -15.1231637 21.3885393 1 614
-16.9605575 -15.6396149 18.2915186 1 615
-14.784249 -16.998667 31.4809036 1 616
-10.1228919 -7.4926004 27.1459188 1 617
-4.5500783 -12.4850072 22.7629199 1 618
-7.8582487 -4.6693572 22.8331347 1 619
-5.6053895 -15.2729919 26.2530718 1 620
-1.4988079 -4.5550165 26.8146152 1 621
-17.2984611 -4.323738 24.6244082 1 622
-11.4855499 -5.7472629 22.9722304 1 623
-14.770224 -9.0612878 23.6552286 1 624
-8.2938995 -0.4382724 34.3770523 1 625
-4.9463672 -11.9214758 28.27668 1 626
-2.0940284 -0.8806228 23.0366669 1 627
-1.8617372 -11.4882307 33.6624737 1 628
-0.997715 -2.9047632 18.5679257 1 629
-9.2279939 -0.9982948 27.3107624 1 630
-0.8725051 -9.4179624 25.8086128 1 631
-16.2038002 -0.7083797 23.7697635 1 632
-10.8741784 -7.5720396 17.8845791 1 633
-2.2028455 -11.9204421 18.95447 1 634
-2.9625005 -4.8326711 24.5375337 1 635
-7.0452661 -2.9435539 34.4383468 1 636
-0.0590019 -9.6913137 22.5047626 1 637
-13.2242675 -5.6887655 27.6275511 1 638
-0.3308182 -6.7398796 26.3053094 1 639
-6.5407228 -2.6360597 21.824996 1 640
-1.4038962 -2.019761 30.8697166 1 641
-11.0804605 -16.0608624 21.2122486 1 642
-2.9135904 -17.2616684 25.6289139 1 643
-8.4134292 -6.2684974 20.3532483 1 644
-11.3377986 -16.386177 25.5457535 1 645
-3.1139459 -9.4485382 28.5530958 1 646
-14.0935311 -1.5596122 20.8893089 1 647
-5.2572546 -0.5976085 33.8928967 1 648
-11.8343753 -17.1286088 18.7230362 1 649
-8.729969 -11.6624236 17.3498368 1 650
-11.795165 -10.2139311 21.7877212 1 651
-15.2144127 -0.9139309 28.9251919 1 652
-2.0667333 -6.1561136 34.5548134 1 653
-2.445549 -4.7949047 19.2779574 1 654
-5.0165014 -14.5329306 31.217843 1 655
-9.2847614 -13.9386592 29.6454849 1 656
-8.5881414 -0.9447574 24.8972487 1 657
-11.1088671 -4.5311784 33.9920521 1 658
-10.0802712 -3.3852396 25.5970774 1 659
-12.5453448 -16.7945536 33.563015 1 660
-12.7720103 -10.2850456 31.6538963 1 661
-6.5390481 -10.8042125 24.5490026 1 662
-17.0903212 -9.4441374 28.2647896 1 663
-0.2378654 -16.7981585 33.3950786 1 664
-10.9982609 -7.4822053 20.6986637 1 665
-9.0109987 -9.0047788 29.0311718 1 666
-10.2420873 -15.3533156 34.5672684 1 667
-3.5366458 -13.3395824 33.0816183 1 668
-6.7056427 -3.6874799 30.7448301 1 669
-11.8270225 -5.4462738 19.0542014 1 670
-6.5352611 -4.6521797 19.1167191 1 671
-13.8263216 -0.2465439 25.5954409 1 672
-6.4851245 -1.3203906 28.7010002 1 673
-7.9423875 -6.6211996 28.1948624 1 674
-16.9514871 -13.1479659 19.8578818 1 675
-6.7031135 -5.744173 32.6097317 1 676
-14.5546989 -12.3545574 31.938796 1 677
-15.5583949 -15.3828106 29.6990194 1 678
-15.6320267 -2.6370925 26.2569866 1 679
-2.0776004 -11.0444755 21.3413763 1 680
-11.5838232 -12.1144075 30.5794582 1 681
-14.8866035 -8.6335124 26.4905615 1 682
-10.0026683 -4.2387647 20.4467134 1 683
-2.4098186 -3.6833114 33.643259 1 684
-0.872507 -15.7624435 23.5820851 1 685
-13.2059974 -7.7998228 22.2762818 1 686
-5.7485265 -13.4567088 17.798235 1 687
-10.3540086 -1.304842 33.0304747 1 688
-2.9565754 -4.2618246 29.3179856 1 689
-6.8206157 -7.2637853 17.8922189 1 690
-1.283041 -8.7480382 31.1049719 1 691
-2.5802774 -14.7256543 26.5478582 1 692
-11.337554 -10.906043 18.5799525 1 693
-5.8220329 -0.3088436 25.0838552 1 694
-8.041418 -7.4469204 22.4418092 1 695
-16.588455 -13.1657715 29.7540407 1 696
-9.0013733 -2.1364536 29.9304523 1 697
-10.7891101 -12.7593774 28.0038385 1 698
-16.1293209 -11.0929684 26.4239168 1 699
-7.2932958 -7.2167978 30.618823 1 700
-1.0860977 -2.0006923 25.1507292 1 701
-5.7843809 -5.874444 26.7643051 1 702
-1.0297432 -7.3049583 28.9818935 1 703
-5.366806 -5.4968376 29.7529516 1 704
-16.2906552 -4.7632226 32.5180769 1 705
-3.2384252 -2.3212908 27.244257 1 706
-1.5934934 -6.5988531 21.2010984 1 707
-4.0771274 -14.5867578 29.0219717 1 708
-10.6218843 -15.4118552 27.8262758 1 709
-11.0515189 -8.616805 30.5955562 1 710
-8.3702296 -14.1588919 20.4150457 1 711
-13.6626462 -15.063179 20.6443348 1 712
-11.1495194 -0.8088016 30.4230127 1 713
-0.3026104 -5.2197132 30.4678583 1 714
-17.2012428 -4.8402509 21.9947758 1 715
-12.5170788 -2.7677812 18.9256164 1 716
-2.4474658 -3.5201501 21.9291902 1 717
-14.3609804 -11.8670501 24.1102715 1 718
-7.2337646 -13.0453605 26.5085153 1 719
-16.6459031 -7.4581174 32.5298204 1 720
-6.6670961 -3.3771248 25.3552742 1 721
-8.1902017 -3.7071275 27.6180639 1 722
-3.3470516 -16.531328 17.8059239 1 723
-8.1621866 -14.6173841 17.5173305 1 724
-3.7262268 -8.1812381 34.0077133 1 725
-3.4261036 -9.5476832 19.493155 1 726
-0.2989197 -16.6811581 30.737278 1 727
-14.0956287 -7.8654136 32.2442226 1 728
-5.5725984 -10.4368834 17.8008692 1 729
-15.7041894 -8.7329998 18.2160018 1 730
-10.6780128 -1.467121 20.770987 1 731
-5.8467168 -14.3789608 20.6284594 1 732
-2.346817 -9.2267379 23.5580292 1 733
-5.4384602 -3.5468187 27.7959099 1 734
-13.1023602 -9.5178403 34.2348634 1 735
-9.8806467 -2.628643 18.2402382 1 736
-15.8325351 -3.181097 30.1143694 1 737
-13.4306966 -13.78026 29.6461563 1 738
-13.4017408 -5.3971758 32.5826206 1 739
-5.9022369 -16.8733067 30.3017808 1 740
-9.7072191 -14.2337074 22.6147981 1 741
-13.3683748 -15.5740871 27.3351097 1 742
-12.8297166 -2.9405727 26.0047836 1 743
-12.7903599 -14.5517969 23.8635793 1 744
-14.2779309 -12.1706934 18.4120354 1 745
-14.0315125 -4.6191225 20.9630029 1 746
-13.1866684 -2.3102236 32.4203396 1 747
-8.4343156 -10.3643154 31.6602745 1 748
-15.2835567 -6.8813199 29.5869036 2 749
-4.3415184 -15.4062194 23.6160846 2 750
-4.416994 -2.403018 19.4026739 2 751
-11.5282735 -8.5924663 24.6213527 2 752
-13.9457936 -10.893917 28.500803 2 753
-7.6668214 -16.779443 21.9404669 2 754
-16.7759801 -16.8839331 26.7940235 2 755
-14.3576826 -5.9441213 24.4989052 2 756
-16.7465022 -5.7534208 18.6074518 2 757
-1.4519462 -14.1105709 31.1940832 2 758
-3.3861828 -6.3280458 31.6880865 2 759