# LAMMPS data file written by OVITO
256 atoms
3 atom types
0.0 17.3196182 xlo xhi
0.0 17.3196182 ylo yhi
0.0 17.3196182 zlo zhi

Atoms # charge

1 1 0.0 6.5735455 7.1824293 10.1003437
2 1 0.0 13.044548 7.7385516 4.871161
3 1 0.0 1.7002987 3.1660044 6.9987674
4 1 0.0 13.901518 5.350935 13.1256867
5 1 0.0 1.1393789 9.9911022 4.4352389
6 1 0.0 5.297585 16.7554627 10.3620825
7 1 0.0 8.0843725 5.7100139 8.7282505
8 1 0.0 1.7927007 7.3608613 13.4349451
9 1 0.0 10.0163469 15.9375678 14.5517884
10 1 0.0 8.9894314 11.8951998 8.1103182
11 1 0.0 12.7581663 6.7661653 15.4214916
12 1 0.0 4.5089545 1.0404527 12.6233235
13 1 0.0 2.8259747 6.6472545 4.4337635
14 1 0.0 15.2805996 4.1631441 6.3799381
15 1 0.0 3.587162 13.9631128 11.5460339
16 1 0.0 6.9126102 7.3826985 16.448185
17 1 0.0 15.5862303 17.0962658 2.2007248
18 1 0.0 16.6186524 6.1816282 13.456625
19 1 0.0 16.5140648 2.2690978 11.2827749
20 1 0.0 10.445489 2.5496261 11.6754761
21 1 0.0 8.5268202 0.7403426 1.7959706
22 1 0.0 0.7857083 6.9411408 2.6143854
23 1 0.0 13.0796099 15.0838003 12.7858286
24 1 0.0 7.4122133 3.2340741 8.3487072
25 1 0.0 2.6159604 4.0128284 4.5059986
26 1 0.0 16.5834503 8.290246 16.6353474
27 1 0.0 16.8601532 3.4654484 8.378294
28 1 0.0 0.656367 4.3595142 16.243393
29 1 0.0 7.1694121 1.2860884 14.640729
30 1 0.0 7.8279543 3.8757582 15.1505785
31 1 0.0 5.1586976 4.3958697 4.0288782
32 1 0.0 12.7092123 11.9470568 17.0487213
33 1 0.0 10.4906483 1.2521552 15.274992
34 1 0.0 11.5598049 9.2820053 3.5670696
35 1 0.0 16.6027928 10.0044327 6.2827807
36 1 0.0 14.1264677 17.1694164 14.4994164
37 1 0.0 12.7420969 16.275507 4.9384252
38 1 0.0 9.3814917 5.3509536 11.2094755
39 1 0.0 3.8656236 17.1475086 5.6286745
40 1 0.0 16.0070076 3.1912663 17.0548916
41 1 0.0 6.6131935 5.1907587 6.2723036
42 1 0.0 5.6450243 3.6209295 1.4845802
43 1 0.0 7.4897704 5.3754249 3.501245
44 1 0.0 11.5103131 9.0261087 7.3577128
45 1 0.0 6.7577315 17.0226402 5.9517904
46 1 0.0 10.070405 5.3949747 2.1933603
47 1 0.0 14.8981352 16.1223183 16.6155453
48 1 0.0 12.6855965 17.2226219 10.5621948
49 1 0.0 10.3420086 3.2508612 5.5287032
50 1 0.0 1.4941089 6.861025 16.3594952
51 1 0.0 12.0349007 7.3391647 13.2299461
52 1 0.0 3.3273118 9.3031168 2.4552217
53 1 0.0 13.6950922 10.6198054 8.738348
54 1 0.0 13.2711935 10.3523626 1.9507606
55 1 0.0 8.5091486 8.5087567 7.6252513
56 1 0.0 1.1828508 12.5531817 10.5007344
57 1 0.0 7.1578922 10.9115678 12.1053152
58 1 0.0 7.8624126 7.2858734 5.3198991
59 1 0.0 13.2189226 0.8093746 3.2137931
60 1 0.0 11.095808 0.8622606 1.4824715
61 1 0.0 2.8575478 13.3934736 17.0827065
62 1 0.0 0.1105617 5.6116715 6.9738522
63 1 0.0 1.2092308 17.1050911 2.1501682
64 1 0.0 11.6878567 11.4524899 5.903874
65 1 0.0 0.3909522 15.338686 4.1440735
66 1 0.0 0.2318878 15.3143025 15.5742417
67 1 0.0 3.157747 10.6220608 17.0818443
68 1 0.0 13.7086115 3.0408409 1.3543874
69 1 0.0 10.8783208 6.5700412 4.4299989
70 1 0.0 12.6922074 5.3065934 2.5750873
71 1 0.0 8.5349055 11.7317267 0.0962726
72 1 0.0 4.8322354 2.8557106 14.7730437
73 1 0.0 9.1163597 1.0419179 9.7848139
74 1 0.0 1.7713651 3.496368 10.1020966
75 1 0.0 0.1136034 1.7961647 3.3917709
76 1 0.0 16.207428 8.8094836 1.9902748
77 1 0.0 12.8010445 14.9854804 7.0954556
78 1 0.0 8.7328406 0.5700788 12.2475176
79 1 0.0 3.6019631 2.2526505 0.7486397
80 1 0.0 4.8933458 12.1631908 12.7889986
81 1 0.0 2.7442882 14.7436972 5.9672256
82 1 0.0 1.7484132 14.8028574 1.5819049
83 1 0.0 9.5537377 15.4335737 1.8665986
84 1 0.0 7.964254 14.9227762 5.5515023
85 1 0.0 8.3262978 9.481061 15.6271744
86 1 0.0 16.7830315 14.8819448 11.374485
87 1 0.0 12.8650504 4.3674526 8.4491139
88 1 0.0 2.2343834 2.4304438 15.8934612
89 1 0.0 12.3529415 14.0616798 15.2525597
90 1 0.0 13.5699272 10.2223396 5.6948748
91 1 0.0 14.8311987 0.1303949 12.0851936
92 1 0.0 12.6706505 12.2189446 3.5281728
93 1 0.0 10.5701485 4.6340671 15.7742434
94 1 0.0 6.2777753 13.2962465 10.9239694
95 1 0.0 5.1804586 5.3620582 8.4966355
96 1 0.0 5.6910486 14.1843157 5.8182879
97 1 0.0 10.858781 4.984162 13.1371126
98 1 0.0 5.6810341 4.944293 16.2212868
99 1 0.0 13.3764534 7.4809914 8.2091026
100 1 0.0 1.7019532 1.3352702 5.1551609
101 1 0.0 11.2948008 8.8635988 15.4663182
102 1 0.0 15.0546179 2.1964545 4.0689211
103 1 0.0 0.3590607 1.6800033 0.9719004
104 1 0.0 2.5353692 0.3209512 14.1612854
105 1 0.0 7.1967263 9.8270178 9.8263006
106 1 0.0 12.7695399 4.834611 5.4433017
107 1 0.0 9.4613695 12.650261 5.5135165
108 1 0.0 11.7142287 2.0466263 8.9334536
109 1 0.0 15.8208103 12.7646017 9.494997
110 1 0.0 0.0211571 12.9958802 7.30479
111 1 0.0 5.8340683 11.5723553 5.6526122
112 1 0.0 2.5493942 8.2583304 6.3356104
113 1 0.0 9.0257187 16.8813458 17.0574341
114 1 0.0 12.373251 5.3981424 10.9570618
115 1 0.0 15.2255898 16.4389954 5.7170487
116 1 0.0 15.457881 5.8313875 16.3428555
117 1 0.0 16.3219032 14.414855 1.2483075
118 1 0.0 8.0916243 16.3213234 9.9911442
119 1 0.0 16.4471131 7.9016558 8.4889946
120 1 0.0 1.115818 16.6112385 6.4501453
121 1 0.0 6.4454398 9.7475786 0.5649609
122 1 0.0 15.1167727 5.3991761 1.6348518
123 1 0.0 14.3571177 12.4869471 7.2179155
124 1 0.0 10.2743521 14.3760643 17.1187286
125 1 0.0 17.2606163 7.6283045 5.1851444
126 1 0.0 4.0953507 11.6308527 10.3079329
127 1 0.0 16.9888 10.5797386 8.9856912
128 1 0.0 10.7788954 14.6835585 4.5053778
129 1 0.0 15.915722 15.2998572 13.5500984
130 1 0.0 6.2391577 1.2587558 3.8926304
131 1 0.0 14.4060278 0.0579498 8.3092957
132 1 0.0 8.906189 11.0511208 3.0336301
133 1 0.0 5.9818196 0.9334412 8.2261353
134 1 0.0 14.2056723 7.87108 11.2334776
135 1 0.0 3.2260871 15.760006 3.5696907
136 1 0.0 12.0623636 16.7220097 16.5732785
137 1 0.0 5.4852429 0.1910094 1.403418
138 1 0.0 8.5896492 5.6571946 0.0302186
139 1 0.0 5.5244532 7.1056871 4.468103
140 1 0.0 2.1052055 16.4056873 11.6055737
141 1 0.0 15.2528849 11.1635046 17.2351952
142 1 0.0 14.8740692 12.5247135 1.9583392
143 1 0.0 12.3031168 2.7866876 13.8982248
144 1 0.0 8.0348568 3.380959 12.3258667
145 1 0.0 8.7314768 16.3748608 7.5776305
146 1 0.0 6.2107511 12.7884398 16.6724339
147 1 0.0 7.239347 13.9343786 8.2774592
148 1 0.0 4.7742734 0.5250646 16.2433968
149 1 0.0 4.5476079 7.0345726 14.3342781
150 1 0.0 10.7805701 6.5154057 7.2293844
151 1 0.0 0.229297 7.8754808 10.9451714
152 1 0.0 17.0817528 0.5214597 16.0754604
153 1 0.0 6.3213573 9.8374129 3.3790455
154 1 0.0 8.3086195 8.3148394 11.7115536
155 1 0.0 7.0775309 1.9663026 17.2476502
156 1 0.0 13.7829724 3.9800358 15.7620001
157 1 0.0 10.6139755 13.6321383 13.4252119
158 1 0.0 5.4925957 11.8733444 1.7345832
159 1 0.0 10.7843571 12.6674385 1.7971009
160 1 0.0 3.4932966 17.0730743 8.2758227
161 1 0.0 10.8344937 15.9992276 11.381382
162 1 0.0 9.3772307 10.6984186 10.8752442
163 1 0.0 0.3681311 4.1716523 2.5382636
164 1 0.0 10.6165047 11.5754452 15.2901135
165 1 0.0 2.7649193 4.9650608 14.6191778
166 1 0.0 1.7612233 1.9368076 12.3794012
167 1 0.0 1.6875915 14.6825257 8.9373684
168 1 0.0 15.2420178 6.2751427 4.0217581
169 1 0.0 5.735795 5.2052107 13.25984
170 1 0.0 2.4330147 8.6861058 9.1709433
171 1 0.0 7.3169499 13.0808535 3.1270952
172 1 0.0 14.9097996 13.6363068 16.3236408
173 1 0.0 16.4471112 1.5571747 6.2624669
174 1 0.0 4.1136208 9.5197954 4.9566636
175 1 0.0 11.5710917 3.8629094 0.4786168
176 1 0.0 6.9656096 16.0147762 15.7108565
177 1 0.0 14.3630428 13.0577936 11.9983674
178 1 0.0 10.4990025 10.0558329 0.5726007
179 1 0.0 16.0365772 8.57158 13.7853537
180 1 0.0 14.7393408 2.5939639 9.22824
181 1 0.0 5.9820642 6.4135752 1.2603343
182 1 0.0 11.4975853 17.0107746 7.764237
183 1 0.0 9.2782002 9.8726978 5.122191
184 1 0.0 0.7311632 4.1538467 12.4344225
185 1 0.0 8.3182449 15.1831646 12.6108341
186 1 0.0 6.5305081 4.5602408 10.6842203
187 1 0.0 1.1902973 6.2266498 9.1042986
188 1 0.0 10.0263224 10.1028204 13.2992048
189 1 0.0 16.2335205 15.3189259 7.831111
190 1 0.0 11.5352373 11.4451742 9.4446869
191 1 0.0 16.289875 10.0146599 11.6622753
192 1 0.0 11.9528122 11.8227806 12.4333334
193 1 0.0 1.028963 12.5563956 15.1984587
194 1 0.0 14.081193 14.9983274 9.9246388
195 1 0.0 15.7261248 10.7207651 3.8814802
196 1 0.0 13.2424908 2.7328604 11.7023535
197 1 0.0 6.6977339 1.907763 10.5066576
198 1 0.0 6.2680993 8.7028132 13.275938
199 1 0.0 8.9493886 3.1607263 3.0954275
200 1 0.0 3.656972 2.2564392 3.3247166
201 1 0.0 6.1700988 16.5108166 13.1033945
202 1 0.0 17.0170078 12.099905 13.1482401
203 1 0.0 0.1183754 12.4793673 4.6751576
204 1 0.0 4.8025394 14.551837 1.6059982
205 1 0.0 14.8721524 13.7994681 4.609572
206 1 0.0 2.9586378 5.4525681 6.7906533
207 1 0.0 10.0858536 4.2742577 9.1888971
208 1 0.0 0.6737151 9.8615008 15.2102022
209 1 0.0 10.6525221 13.9424934 8.035656
210 1 0.0 9.1294165 13.6124907 10.2984457
211 1 0.0 13.9725666 0.7882902 0.4863057
212 1 0.0 9.1574316 2.7022341 0.1977123
213 1 0.0 13.5933914 9.1383801 16.6880951
214 1 0.0 13.8935146 7.771935 2.1735368
215 1 0.0 17.0206985 0.6384601 13.4176598
216 1 0.0 3.2239895 9.4542046 14.9246044
217 1 0.0 11.7470198 6.8827348 0.481251
218 1 0.0 1.6154288 8.5866184 0.8963836
219 1 0.0 6.6416054 15.8524972 3.4513688
220 1 0.0 11.4729014 2.9406574 3.3088412
221 1 0.0 14.9728012 8.0928803 6.238411
222 1 0.0 11.881158 13.7727995 10.4762917
223 1 0.0 4.217258 7.8017779 16.9152452
224 1 0.0 7.4389715 14.6909752 0.92062
225 1 0.0 1.4870831 14.1385212 12.7947512
226 1 0.0 3.8889216 3.5393582 12.3265381
227 1 0.0 3.9178774 11.9224424 15.2630024
228 1 0.0 11.4173813 0.4463115 12.9821626
229 1 0.0 7.6123991 3.0859108 5.2951799
230 1 0.0 3.9512434 1.7455311 10.0154915
231 1 0.0 4.4899016 14.3790455 8.6851654
232 2 0.0 4.5292583 2.7678213 6.5439611
233 2 0.0 3.0416873 5.1489248 1.0924172
234 2 0.0 3.2881057 12.7004957 3.6433847
235 2 0.0 4.1329498 15.0093946 15.1007214
236 2 0.0 8.8853026 6.9553028 14.3406563
237 2 0.0 2.0360615 10.4382983 12.2672854
238 2 0.0 12.9780998 1.9133988 6.2964664
239 2 0.0 12.9026242 14.9166002 2.0830557
240 2 0.0 5.7913447 8.7271519 7.3017345
241 2 0.0 3.3738246 6.4257012 11.1811848
242 2 0.0 9.6527968 0.5401752 4.6208487
243 2 0.0 0.5436381 0.4356851 9.4744053
244 2 0.0 2.9619356 11.3754969 7.179287
245 2 0.0 0.573116 11.5661974 1.2878336
246 2 0.0 15.867672 3.2090473 13.874465
247 2 0.0 13.9334354 10.9915724 14.3684683
248 2 0.0 15.9233542 5.0590382 10.4184322
249 2 0.0 11.1304522 8.2614689 10.210928
250 2 0.0 9.0374355 8.0369053 2.2574794
251 2 0.0 7.8076139 13.0827808 14.415164
252 3 0.0 9.7779417 1.5671839 7.4850288
253 3 0.0 4.809371 9.6157828 11.110014
254 3 0.0 5.7986827 10.0788898 15.4974509
255 3 0.0 5.8759934 11.633214 8.3163672
256 3 0.0 2.1116207 17.1900902 16.4930477
