ITEM: TIMESTEP
0
ITEM: NUMBER OF ATOMS
2048
ITEM: BOX BOUNDS pp pp pp
0.0 34.6392364
0.0 34.6392364
0.0 34.6392364
ITEM: ATOMS x y z type id
6.5735455 7.1824293 10.1003437 1 1
13.044548 7.7385516 4.871161 1 2
1.7002987 3.1660044 6.9987674 1 3
13.901518 5.350935 13.1256867 1 4
1.1393789 9.9911022 4.4352389 1 5
5.297585 16.7554627 10.3620825 1 6
8.0843725 5.7100139 8.7282505 1 7
1.7927007 7.3608613 13.4349451 1 8
10.0163469 15.9375678 14.5517884 1 9
8.9894314 11.8951998 8.1103182 1 10
12.7581663 6.7661653 15.4214916 1 11
4.5089545 1.0404527 12.6233235 1 12
2.8259747 6.6472545 4.4337635 1 13
15.2805996 4.1631441 6.3799381 1 14
3.587162 13.9631128 11.5460339 1 15
6.9126102 7.3826985 16.448185 1 16
15.5862303 17.0962658 2.2007248 1 17
16.6186524 6.1816282 13.456625 1 18
16.5140648 2.2690978 11.2827749 1 19
10.445489 2.5496261 11.6754761 1 20
8.5268202 0.7403426 1.7959706 1 21
0.7857083 6.9411408 2.6143854 1 22
13.0796099 15.0838003 12.7858286 1 23
7.4122133 3.2340741 8.3487072 1 24
2.6159604 4.0128284 4.5059986 1 25
16.5834503 8.290246 16.6353474 1 26
16.8601532 3.4654484 8.378294 1 27
0.656367 4.3595142 16.243393 1 28
7.1694121 1.2860884 14.640729 1 29
7.8279543 3.8757582 15.1505785 1 30
5.1586976 4.3958697 4.0288782 1 31
12.7092123 11.9470568 17.0487213 1 32
10.4906483 1.2521552 15.274992 1 33
11.5598049 9.2820053 3.5670696 1 34
16.6027928 10.0044327 6.2827807 1 35
14.1264677 17.1694164 14.4994164 1 36
12.7420969 16.275507 4.9384252 1 37
9.3814917 5.3509536 11.2094755 1 38
3.8656236 17.1475086 5.6286745 1 39
16.0070076 3.1912663 17.0548916 1 40
6.6131935 5.1907587 6.2723036 1 41
5.6450243 3.6209295 1.4845802 1 42
7.4897704 5.3754249 3.501245 1 43
11.5103131 9.0261087 7.3577128 1 44
6.7577315 17.0226402 5.9517904 1 45
10.070405 5.3949747 2.1933603 1 46
14.8981352 16.1223183 16.6155453 1 47
12.6855965 17.2226219 10.5621948 1 48
10.3420086 3.2508612 5.5287032 1 49
1.4941089 6.861025 16.3594952 1 50
12.0349007 7.3391647 13.2299461 1 51
3.3273118 9.3031168 2.4552217 1 52
13.6950922 10.6198054 8.738348 1 53
13.2711935 10.3523626 1.9507606 1 54
8.5091486 8.5087567 7.6252513 1 55
1.1828508 12.5531817 10.5007344 1 56
7.1578922 10.9115678 12.1053152 1 57
7.8624126 7.2858734 5.3198991 1 58
13.2189226 0.8093746 3.2137931 1 59
11.095808 0.8622606 1.4824715 1 60
2.8575478 13.3934736 17.0827065 1 61
0.1105617 5.6116715 6.9738522 1 62
1.2092308 17.1050911 2.1501682 1 63
11.6878567 11.4524899 5.903874 1 64
0.3909522 15.338686 4.1440735 1 65
0.2318878 15.3143025 15.5742417 1 66
3.157747 10.6220608 17.0818443 1 67
13.7086115 3.0408409 1.3543874 1 68
10.8783208 6.5700412 4.4299989 1 69
12.6922074 5.3065934 2.5750873 1 70
8.5349055 11.7317267 0.0962726 1 71
4.8322354 2.8557106 14.7730437 1 72
9.1163597 1.0419179 9.7848139 1 73
1.7713651 3.496368 10.1020966 1 74
0.1136034 1.7961647 3.3917709 1 75
16.207428 8.8094836 1.9902748 1 76
12.8010445 14.9854804 7.0954556 1 77
8.7328406 0.5700788 12.2475176 1 78
3.6019631 2.2526505 0.7486397 1 79
4.8933458 12.1631908 12.7889986 1 80
2.7442882 14.7436972 5.9672256 1 81
1.7484132 14.8028574 1.5819049 1 82
9.5537377 15.4335737 1.8665986 1 83
7.964254 14.9227762 5.5515023 1 84
8.3262978 9.481061 15.6271744 1 85
16.7830315 14.8819448 11.374485 1 86
12.8650504 4.3674526 8.4491139 1 87
2.2343834 2.4304438 15.8934612 1 88
12.3529415 14.0616798 15.2525597 1 89
13.5699272 10.2223396 5.6948748 1 90
14.8311987 0.1303949 12.0851936 1 91
12.6706505 12.2189446 3.5281728 1 92
10.5701485 4.6340671 15.7742434 1 93
6.2777753 13.2962465 10.9239694 1 94
5.1804586 5.3620582 8.4966355 1 95
5.6910486 14.1843157 5.8182879 1 96
10.858781 4.984162 13.1371126 1 97
5.6810341 4.944293 16.2212868 1 98
13.3764534 7.4809914 8.2091026 1 99
1.7019532 1.3352702 5.1551609 1 100
11.2948008 8.8635988 15.4663182 1 101
15.0546179 2.1964545 4.0689211 1 102
0.3590607 1.6800033 0.9719004 1 103
2.5353692 0.3209512 14.1612854 1 104
7.1967263 9.8270178 9.8263006 1 105
12.7695399 4.834611 5.4433017 1 106
9.4613695 12.650261 5.5135165 1 107
11.7142287 2.0466263 8.9334536 1 108
15.8208103 12.7646017 9.494997 1 109
0.0211571 12.9958802 7.30479 1 110
5.8340683 11.5723553 5.6526122 1 111
2.5493942 8.2583304 6.3356104 1 112
9.0257187 16.8813458 17.0574341 1 113
12.373251 5.3981424 10.9570618 1 114
15.2255898 16.4389954 5.7170487 1 115
15.457881 5.8313875 16.3428555 1 116
16.3219032 14.414855 1.2483075 1 117
8.0916243 16.3213234 9.9911442 1 118
16.4471131 7.9016558 8.4889946 1 119
1.115818 16.6112385 6.4501453 1 120
6.4454398 9.7475786 0.5649609 1 121
15.1167727 5.3991761 1.6348518 1 122
14.3571177 12.4869471 7.2179155 1 123
10.2743521 14.3760643 17.1187286 1 124
17.2606163 7.6283045 5.1851444 1 125
4.0953507 11.6308527 10.3079329 1 126
16.9888 10.5797386 8.9856912 1 127
10.7788954 14.6835585 4.5053778 1 128
15.915722 15.2998572 13.5500984 1 129
6.2391577 1.2587558 3.8926304 1 130
14.4060278 0.0579498 8.3092957 1 131
8.906189 11.0511208 3.0336301 1 132
5.9818196 0.9334412 8.2261353 1 133
14.2056723 7.87108 11.2334776 1 134
3.2260871 15.760006 3.5696907 1 135
12.0623636 16.7220097 16.5732785 1 136
5.4852429 0.1910094 1.403418 1 137
8.5896492 5.6571946 0.0302186 1 138
5.5244532 7.1056871 4.468103 1 139
2.1052055 16.4056873 11.6055737 1 140
15.2528849 11.1635046 17.2351952 1 141
14.8740692 12.5247135 1.9583392 1 142
12.3031168 2.7866876 13.8982248 1 143
8.0348568 3.380959 12.3258667 1 144
8.7314768 16.3748608 7.5776305 1 145
6.2107511 12.7884398 16.6724339 1 146
7.239347 13.9343786 8.2774592 1 147
4.7742734 0.5250646 16.2433968 1 148
4.5476079 7.0345726 14.3342781 1 149
10.7805701 6.5154057 7.2293844 1 150
0.229297 7.8754808 10.9451714 1 151
17.0817528 0.5214597 16.0754604 1 152
6.3213573 9.8374129 3.3790455 1 153
8.3086195 8.3148394 11.7115536 1 154
7.0775309 1.9663026 17.2476502 1 155
13.7829724 3.9800358 15.7620001 1 156
10.6139755 13.6321383 13.4252119 1 157
5.4925957 11.8733444 1.7345832 1 158
10.7843571 12.6674385 1.7971009 1 159
3.4932966 17.0730743 8.2758227 1 160
10.8344937 15.9992276 11.381382 1 161
9.3772307 10.6984186 10.8752442 1 162
0.3681311 4.1716523 2.5382636 1 163
10.6165047 11.5754452 15.2901135 1 164
2.7649193 4.9650608 14.6191778 1 165
1.7612233 1.9368076 12.3794012 1 166
1.6875915 14.6825257 8.9373684 1 167
15.2420178 6.2751427 4.0217581 1 168
5.735795 5.2052107 13.25984 1 169
2.4330147 8.6861058 9.1709433 1 170
7.3169499 13.0808535 3.1270952 1 171
14.9097996 13.6363068 16.3236408 1 172
16.4471112 1.5571747 6.2624669 1 173
4.1136208 9.5197954 4.9566636 1 174
11.5710917 3.8629094 0.4786168 1 175
6.9656096 16.0147762 15.7108565 1 176
14.3630428 13.0577936 11.9983674 1 177
10.4990025 10.0558329 0.5726007 1 178
16.0365772 8.57158 13.7853537 1 179
14.7393408 2.5939639 9.22824 1 180
5.9820642 6.4135752 1.2603343 1 181
11.4975853 17.0107746 7.764237 1 182
9.2782002 9.8726978 5.122191 1 183
0.7311632 4.1538467 12.4344225 1 184
8.3182449 15.1831646 12.6108341 1 185
6.5305081 4.5602408 10.6842203 1 186
1.1902973 6.2266498 9.1042986 1 187
10.0263224 10.1028204 13.2992048 1 188
16.2335205 15.3189259 7.831111 1 189
11.5352373 11.4451742 9.4446869 1 190
16.289875 10.0146599 11.6622753 1 191
11.9528122 11.8227806 12.4333334 1 192
1.028963 12.5563956 15.1984587 1 193
14.081193 14.9983274 9.9246388 1 194
15.7261248 10.7207651 3.8814802 1 195
13.2424908 2.7328604 11.7023535 1 196
6.6977339 1.907763 10.5066576 1 197
6.2680993 8.7028132 13.275938 1 198
8.9493886 3.1607263 3.0954275 1 199
3.656972 2.2564392 3.3247166 1 200
6.1700988 16.5108166 13.1033945 1 201
17.0170078 12.099905 13.1482401 1 202
0.1183754 12.4793673 4.6751576 1 203
4.8025394 14.551837 1.6059982 1 204
14.8721524 13.7994681 4.609572 1 205
2.9586378 5.4525681 6.7906533 1 206
10.0858536 4.2742577 9.1888971 1 207
0.6737151 9.8615008 15.2102022 1 208
10.6525221 13.9424934 8.035656 1 209
9.1294165 13.6124907 10.2984457 1 210
13.9725666 0.7882902 0.4863057 1 211
9.1574316 2.7022341 0.1977123 1 212
13.5933914 9.1383801 16.6880951 1 213
13.8935146 7.771935 2.1735368 1 214
17.0206985 0.6384601 13.4176598 1 215
3.2239895 9.4542046 14.9246044 1 216
11.7470198 6.8827348 0.481251 1 217
1.6154288 8.5866184 0.8963836 1 218
6.6416054 15.8524972 3.4513688 1 219
11.4729014 2.9406574 3.3088412 1 220
14.9728012 8.0928803 6.238411 1 221
11.881158 13.7727995 10.4762917 1 222
4.217258 7.8017779 16.9152452 1 223
7.4389715 14.6909752 0.92062 1 224
1.4870831 14.1385212 12.7947512 1 225
3.8889216 3.5393582 12.3265381 1 226
3.9178774 11.9224424 15.2630024 1 227
11.4173813 0.4463115 12.9821626 1 228
7.6123991 3.0859108 5.2951799 1 229
3.9512434 1.7455311 10.0154915 1 230
4.4899016 14.3790455 8.6851654 1 231
4.5292583 2.7678213 6.5439611 2 232
3.0416873 5.1489248 1.0924172 2 233
3.2881057 12.7004957 3.6433847 2 234
4.1329498 15.0093946 15.1007214 2 235
8.8853026 6.9553028 14.3406563 2 236
2.0360615 10.4382983 12.2672854 2 237
12.9780998 1.9133988 6.2964664 2 238
12.9026242 14.9166002 2.0830557 2 239
5.7913447 8.7271519 7.3017345 2 240
3.3738246 6.4257012 11.1811848 2 241
9.6527968 0.5401752 4.6208487 2 242
0.5436381 0.4356851 9.4744053 2 243
2.9619356 11.3754969 7.179287 2 244
0.573116 11.5661974 1.2878336 2 245
15.867672 3.2090473 13.874465 2 246
13.9334354 10.9915724 14.3684683 2 247
15.9233542 5.0590382 10.4184322 2 248
11.1304522 8.2614689 10.210928 2 249
9.0374355 8.0369053 2.2574794 2 250
7.8076139 13.0827808 14.415164 2 251
9.7779417 1.5671839 7.4850288 3 252
4.809371 9.6157828 11.110014 3 253
5.7986827 10.0788898 15.4974509 3 254
5.8759934 11.633214 8.3163672 3 255
2.1116207 17.1900902 16.4930477 3 256
6.5735455 7.1824293 27.4199619 1 257
13.044548 7.7385516 22.1907792 1 258
1.7002987 3.1660044 24.3183856 1 259
13.901518 5.350935 30.4453049 1 260
1.1393789 9.9911022 21.7548571 1 261
5.297585 16.7554627 27.6817007 1 262
8.0843725 5.7100139 26.0478687 1 263
1.7927007 7.3608613 30.7545633 1 264
10.0163469 15.9375678 31.8714066 1 265
8.9894314 11.8951998 25.4299364 1 266
12.7581663 6.7661653 32.7411098 1 267
4.5089545 1.0404527 29.9429417 1 268
2.8259747 6.6472545 21.7533817 1 269
15.2805996 4.1631441 23.6995563 1 270
3.587162 13.9631128 28.8656521 1 271
6.9126102 7.3826985 33.7678032 1 272
15.5862303 17.0962658 19.520343 1 273
16.6186524 6.1816282 30.7762432 1 274
16.5140648 2.2690978 28.6023931 1 275
10.445489 2.5496261 28.9950943 1 276
8.5268202 0.7403426 19.1155888 1 277
0.7857083 6.9411408 19.9340036 1 278
13.0796099 15.0838003 30.1054468 1 279
7.4122133 3.2340741 25.6683254 1 280
2.6159604 4.0128284 21.8256168 1 281
16.5834503 8.290246 33.9549656 1 282
16.8601532 3.4654484 25.6979122 1 283
0.656367 4.3595142 33.5630112 1 284
7.1694121 1.2860884 31.9603472 1 285
7.8279543 3.8757582 32.4701967 1 286
5.1586976 4.3958697 21.3484964 1 287
12.7092123 11.9470568 34.3683395 1 288
10.4906483 1.2521552 32.5946102 1 289
11.5598049 9.2820053 20.8866878 1 290
16.6027928 10.0044327 23.6023989 1 291
14.1264677 17.1694164 31.8190346 1 292
12.7420969 16.275507 22.2580434 1 293
9.3814917 5.3509536 28.5290937 1 294
3.8656236 17.1475086 22.9482927 1 295
16.0070076 3.1912663 34.3745098 1 296
6.6131935 5.1907587 23.5919218 1 297
5.6450243 3.6209295 18.8041984 1 298
7.4897704 5.3754249 20.8208632 1 299
11.5103131 9.0261087 24.677331 1 300
6.7577315 17.0226402 23.2714086 1 301
10.070405 5.3949747 19.5129785 1 302
14.8981352 16.1223183 33.9351635 1 303
12.6855965 17.2226219 27.881813 1 304
10.3420086 3.2508612 22.8483214 1 305
1.4941089 6.861025 33.6791134 1 306
12.0349007 7.3391647 30.5495643 1 307
3.3273118 9.3031168 19.7748399 1 308
13.6950922 10.6198054 26.0579662 1 309
13.2711935 10.3523626 19.2703788 1 310
8.5091486 8.5087567 24.9448695 1 311
1.1828508 12.5531817 27.8203526 1 312
7.1578922 10.9115678 29.4249334 1 313
7.8624126 7.2858734 22.6395173 1 314
13.2189226 0.8093746 20.5334113 1 315
11.095808 0.8622606 18.8020897 1 316
2.8575478 13.3934736 34.4023247 1 317
0.1105617 5.6116715 24.2934704 1 318
1.2092308 17.1050911 19.4697864 1 319
11.6878567 11.4524899 23.2234922 1 320
0.3909522 15.338686 21.4636917 1 321
0.2318878 15.3143025 32.8938599 1 322
3.157747 10.6220608 34.4014625 1 323
13.7086115 3.0408409 18.6740056 1 324
10.8783208 6.5700412 21.7496171 1 325
12.6922074 5.3065934 19.8947055 1 326
8.5349055 11.7317267 17.4158908 1 327
4.8322354 2.8557106 32.0926619 1 328
9.1163597 1.0419179 27.1044321 1 329
1.7713651 3.496368 27.4217148 1 330
0.1136034 1.7961647 20.7113891 1 331
16.207428 8.8094836 19.309893 1 332
12.8010445 14.9854804 24.4150738 1 333
8.7328406 0.5700788 29.5671358 1 334
3.6019631 2.2526505 18.0682579 1 335
4.8933458 12.1631908 30.1086168 1 336
2.7442882 14.7436972 23.2868438 1 337
1.7484132 14.8028574 18.9015231 1 338
9.5537377 15.4335737 19.1862168 1 339
7.964254 14.9227762 22.8711205 1 340
8.3262978 9.481061 32.9467926 1 341
16.7830315 14.8819448 28.6941032 1 342
12.8650504 4.3674526 25.7687321 1 343
2.2343834 2.4304438 33.2130794 1 344
12.3529415 14.0616798 32.5721779 1 345
13.5699272 10.2223396 23.014493 1 346
14.8311987 0.1303949 29.4048118 1 347
12.6706505 12.2189446 20.847791 1 348
10.5701485 4.6340671 33.0938616 1 349
6.2777753 13.2962465 28.2435876 1 350
5.1804586 5.3620582 25.8162537 1 351
5.6910486 14.1843157 23.1379061 1 352
10.858781 4.984162 30.4567308 1 353
5.6810341 4.944293 33.540905 1 354
13.3764534 7.4809914 25.5287208 1 355
1.7019532 1.3352702 22.4747791 1 356
11.2948008 8.8635988 32.7859364 1 357
15.0546179 2.1964545 21.3885393 1 358
0.3590607 1.6800033 18.2915186 1 359
2.5353692 0.3209512 31.4809036 1 360
7.1967263 9.8270178 27.1459188 1 361
12.7695399 4.834611 22.7629199 1 362
9.4613695 12.650261 22.8331347 1 363
11.7142287 2.0466263 26.2530718 1 364
15.8208103 12.7646017 26.8146152 1 365
0.0211571 12.9958802 24.6244082 1 366
5.8340683 11.5723553 22.9722304 1 367
2.5493942 8.2583304 23.6552286 1 368
9.0257187 16.8813458 34.3770523 1 369
12.373251 5.3981424 28.27668 1 370
15.2255898 16.4389954 23.0366669 1 371
15.457881 5.8313875 33.6624737 1 372
16.3219032 14.414855 18.5679257 1 373
8.0916243 16.3213234 27.3107624 1 374
16.4471131 7.9016558 25.8086128 1 375
1.115818 16.6112385 23.7697635 1 376
6.4454398 9.7475786 17.8845791 1 377
15.1167727 5.3991761 18.95447 1 378
14.3571177 12.4869471 24.5375337 1 379
10.2743521 14.3760643 34.4383468 1 380
17.2606163 7.6283045 22.5047626 1 381
4.0953507 11.6308527 27.6275511 1 382
16.9888 10.5797386 26.3053094 1 383
10.7788954 14.6835585 21.824996 1 384
15.915722 15.2998572 30.8697166 1 385
6.2391577 1.2587558 21.2122486 1 386
14.4060278 0.0579498 25.6289139 1 387
8.906189 11.0511208 20.3532483 1 388
5.9818196 0.9334412 25.5457535 1 389
14.2056723 7.87108 28.5530958 1 390
3.2260871 15.760006 20.8893089 1 391
12.0623636 16.7220097 33.8928967 1 392
5.4852429 0.1910094 18.7230362 1 393
8.5896492 5.6571946 17.3498368 1 394
5.5244532 7.1056871 21.7877212 1 395
2.1052055 16.4056873 28.9251919 1 396
15.2528849 11.1635046 34.5548134 1 397
14.8740692 12.5247135 19.2779574 1 398
12.3031168 2.7866876 31.217843 1 399
8.0348568 3.380959 29.6454849 1 400
8.7314768 16.3748608 24.8972487 1 401
6.2107511 12.7884398 33.9920521 1 402
7.239347 13.9343786 25.5970774 1 403
4.7742734 0.5250646 33.563015 1 404
4.5476079 7.0345726 31.6538963 1 405
10.7805701 6.5154057 24.5490026 1 406
0.229297 7.8754808 28.2647896 1 407
17.0817528 0.5214597 33.3950786 1 408
6.3213573 9.8374129 20.6986637 1 409
8.3086195 8.3148394 29.0311718 1 410
7.0775309 1.9663026 34.5672684 1 411
13.7829724 3.9800358 33.0816183 1 412
10.6139755 13.6321383 30.7448301 1 413
5.4925957 11.8733444 19.0542014 1 414
10.7843571 12.6674385 19.1167191 1 415
3.4932966 17.0730743 25.5954409 1 416
10.8344937 15.9992276 28.7010002 1 417
9.3772307 10.6984186 28.1948624 1 418
0.3681311 4.1716523 19.8578818 1 419
10.6165047 11.5754452 32.6097317 1 420
2.7649193 4.9650608 31.938796 1 421
1.7612233 1.9368076 29.6990194 1 422
1.6875915 14.6825257 26.2569866 1 423
15.2420178 6.2751427 21.3413763 1 424
5.735795 5.2052107 30.5794582 1 425
2.4330147 8.6861058 26.4905615 1 426
7.3169499 13.0808535 20.4467134 1 427
14.9097996 13.6363068 33.643259 1 428
16.4471112 1.5571747 23.5820851 1 429
4.1136208 9.5197954 22.2762818 1 430
11.5710917 3.8629094 17.798235 1 431
6.9656096 16.0147762 33.0304747 1 432
14.3630428 13.0577936 29.3179856 1 433
10.4990025 10.0558329 17.8922189 1 434
16.0365772 8.57158 31.1049719 1 435
14.7393408 2.5939639 26.5478582 1 436
5.9820642 6.4135752 18.5799525 1 437
11.4975853 17.0107746 25.0838552 1 438
9.2782002 9.8726978 22.4418092 1 439
0.7311632 4.1538467 29.7540407 1 440
8.3182449 15.1831646 29.9304523 1 441
6.5305081 4.5602408 28.0038385 1 442
1.1902973 6.2266498 26.4239168 1 443
10.0263224 10.1028204 30.618823 1 444
16.2335205 15.3189259 25.1507292 1 445
11.5352373 11.4451742 26.7643051 1 446
16.289875 10.0146599 28.9818935 1 447
11.9528122 11.8227806 29.7529516 1 448
1.028963 12.5563956 32.5180769 1 449
14.081193 14.9983274 27.244257 1 450
15.7261248 10.7207651 21.2010984 1 451
13.2424908 2.7328604 29.0219717 1 452
6.6977339 1.907763 27.8262758 1 453
6.2680993 8.7028132 30.5955562 1 454
8.9493886 3.1607263 20.4150457 1 455
3.656972 2.2564392 20.6443348 1 456
6.1700988 16.5108166 30.4230127 1 457
17.0170078 12.099905 30.4678583 1 458
0.1183754 12.4793673 21.9947758 1 459
4.8025394 14.551837 18.9256164 1 460
14.8721524 13.7994681 21.9291902 1 461
2.9586378 5.4525681 24.1102715 1 462
10.0858536 4.2742577 26.5085153 1 463
0.6737151 9.8615008 32.5298204 1 464
10.6525221 13.9424934 25.3552742 1 465
9.1294165 13.6124907 27.6180639 1 466
13.9725666 0.7882902 17.8059239 1 467
9.1574316 2.7022341 17.5173305 1 468
13.5933914 9.1383801 34.0077133 1 469
13.8935146 7.771935 19.493155 1 470
17.0206985 0.6384601 30.737278 1 471
3.2239895 9.4542046 32.2442226 1 472
11.7470198 6.8827348 17.8008692 1 473
1.6154288 8.5866184 18.2160018 1 474
6.6416054 15.8524972 20.770987 1 475
11.4729014 2.9406574 20.6284594 1 476
14.9728012 8.0928803 23.5580292 1 477
11.881158 13.7727995 27.7959099 1 478
4.217258 7.8017779 34.2348634 1 479
7.4389715 14.6909752 18.2402382 1 480
1.4870831 14.1385212 30.1143694 1 481
3.8889216 3.5393582 29.6461563 1 482
3.9178774 11.9224424 32.5826206 1 483
11.4173813 0.4463115 30.3017808 1 484
7.6123991 3.0859108 22.6147981 1 485
3.9512434 1.7455311 27.3351097 1 486
4.4899016 14.3790455 26.0047836 1 487
4.5292583 2.7678213 23.8635793 2 488
3.0416873 5.1489248 18.4120354 2 489
3.2881057 12.7004957 20.9630029 2 490
4.1329498 15.0093946 32.4203396 2 491
8.8853026 6.9553028 31.6602745 2 492
2.0360615 10.4382983 29.5869036 2 493
12.9780998 1.9133988 23.6160846 2 494
12.9026242 14.9166002 19.4026739 2 495
5.7913447 8.7271519 24.6213527 2 496
3.3738246 6.4257012 28.500803 2 497
9.6527968 0.5401752 21.9404669 2 498
0.5436381 0.4356851 26.7940235 2 499
2.9619356 11.3754969 24.4989052 2 500
0.573116 11.5661974 18.6074518 2 501
15.867672 3.2090473 31.1940832 2 502
13.9334354 10.9915724 31.6880865 2 503
15.9233542 5.0590382 27.7380504 2 504
11.1304522 8.2614689 27.5305462 2 505
9.0374355 8.0369053 19.5770976 2 506
7.8076139 13.0827808 31.7347822 2 507
9.7779417 1.5671839 24.804647 3 508
4.809371 9.6157828 28.4296322 3 509
5.7986827 10.0788898 32.8170691 3 510
5.8759934 11.633214 25.6359854 3 511
2.1116207 17.1900902 33.8126659 3 512
6.5735455 24.5020475 10.1003437 1 513
13.044548 25.0581698 4.871161 1 514
1.7002987 20.4856226 6.9987674 1 515
13.901518 22.6705532 13.1256867 1 516
1.1393789 27.3107204 4.4352389 1 517
5.297585 34.0750809 10.3620825 1 518
8.0843725 23.0296321 8.7282505 1 519
1.7927007 24.6804795 13.4349451 1 520
10.0163469 33.257186 14.5517884 1 521
8.9894314 29.214818 8.1103182 1 522
12.7581663 24.0857835 15.4214916 1 523
4.5089545 18.3600709 12.6233235 1 524
2.8259747 23.9668727 4.4337635 1 525
15.2805996 21.4827623 6.3799381 1 526
3.587162 31.282731 11.5460339 1 527
6.9126102 24.7023167 16.448185 1 528
15.5862303 34.415884 2.2007248 1 529
16.6186524 23.5012464 13.456625 1 530
16.5140648 19.588716 11.2827749 1 531
10.445489 19.8692443 11.6754761 1 532
8.5268202 18.0599608 1.7959706 1 533
0.7857083 24.260759 2.6143854 1 534
13.0796099 32.4034185 12.7858286 1 535
7.4122133 20.5536923 8.3487072 1 536
2.6159604 21.3324466 4.5059986 1 537
16.5834503 25.6098642 16.6353474 1 538
16.8601532 20.7850666 8.378294 1 539
0.656367 21.6791324 16.243393 1 540
7.1694121 18.6057066 14.640729 1 541
7.8279543 21.1953764 15.1505785 1 542
5.1586976 21.7154879 4.0288782 1 543
12.7092123 29.266675 17.0487213 1 544
10.4906483 18.5717734 15.274992 1 545
11.5598049 26.6016235 3.5670696 1 546
16.6027928 27.3240509 6.2827807 1 547
14.1264677 34.4890346 14.4994164 1 548
12.7420969 33.5951252 4.9384252 1 549
9.3814917 22.6705718 11.2094755 1 550
3.8656236 34.4671268 5.6286745 1 551
16.0070076 20.5108845 17.0548916 1 552
6.6131935 22.5103769 6.2723036 1 553
5.6450243 20.9405477 1.4845802 1 554
7.4897704 22.6950431 3.501245 1 555
11.5103131 26.3457269 7.3577128 1 556
6.7577315 34.3422584 5.9517904 1 557
10.070405 22.7145929 2.1933603 1 558
14.8981352 33.4419365 16.6155453 1 559
12.6855965 34.5422401 10.5621948 1 560
10.3420086 20.5704794 5.5287032 1 561
1.4941089 24.1806432 16.3594952 1 562
12.0349007 24.6587829 13.2299461 1 563
3.3273118 26.622735 2.4552217 1 564
13.6950922 27.9394236 8.738348 1 565
13.2711935 27.6719808 1.9507606 1 566
8.5091486 25.8283749 7.6252513 1 567
1.1828508 29.8727999 10.5007344 1 568
7.1578922 28.231186 12.1053152 1 569
7.8624126 24.6054916 5.3198991 1 570
13.2189226 18.1289928 3.2137931 1 571
11.095808 18.1818788 1.4824715 1 572
2.8575478 30.7130918 17.0827065 1 573
0.1105617 22.9312897 6.9738522 1 574
1.2092308 34.4247093 2.1501682 1 575
11.6878567 28.7721081 5.903874 1 576
0.3909522 32.6583042 4.1440735 1 577
0.2318878 32.6339207 15.5742417 1 578
3.157747 27.941679 17.0818443 1 579
13.7086115 20.3604591 1.3543874 1 580
10.8783208 23.8896594 4.4299989 1 581
12.6922074 22.6262116 2.5750873 1 582
8.5349055 29.0513449 0.0962726 1 583
4.8322354 20.1753288 14.7730437 1 584
9.1163597 18.3615361 9.7848139 1 585
1.7713651 20.8159862 10.1020966 1 586
0.1136034 19.1157829 3.3917709 1 587
16.207428 26.1291018 1.9902748 1 588
12.8010445 32.3050986 7.0954556 1 589
8.7328406 17.889697 12.2475176 1 590
3.6019631 19.5722687 0.7486397 1 591
4.8933458 29.482809 12.7889986 1 592
2.7442882 32.0633154 5.9672256 1 593
1.7484132 32.1224756 1.5819049 1 594
9.5537377 32.7531919 1.8665986 1 595
7.964254 32.2423944 5.5515023 1 596
8.3262978 26.8006792 15.6271744 1 597
16.7830315 32.201563 11.374485 1 598
12.8650504 21.6870708 8.4491139 1 599
2.2343834 19.750062 15.8934612 1 600
12.3529415 31.381298 15.2525597 1 601
13.5699272 27.5419578 5.6948748 1 602
14.8311987 17.4500131 12.0851936 1 603
12.6706505 29.5385628 3.5281728 1 604
10.5701485 21.9536853 15.7742434 1 605
6.2777753 30.6158647 10.9239694 1 606
5.1804586 22.6816764 8.4966355 1 607
5.6910486 31.5039339 5.8182879 1 608
10.858781 22.3037802 13.1371126 1 609
5.6810341 22.2639112 16.2212868 1 610
13.3764534 24.8006096 8.2091026 1 611
1.7019532 18.6548884 5.1551609 1 612
11.2948008 26.183217 15.4663182 1 613
15.0546179 19.5160727 4.0689211 1 614
0.3590607 18.9996215 0.9719004 1 615
2.5353692 17.6405694 14.1612854 1 616
7.1967263 27.146636 9.8263006 1 617
12.7695399 22.1542292 5.4433017 1 618
9.4613695 29.9698792 5.5135165 1 619
11.7142287 19.3662445 8.9334536 1 620
15.8208103 30.0842199 9.494997 1 621
0.0211571 30.3154984 7.30479 1 622
5.8340683 28.8919735 5.6526122 1 623
2.5493942 25.5779486 6.3356104 1 624
9.0257187 34.200964 17.0574341 1 625
12.373251 22.7177606 10.9570618 1 626
15.2255898 33.7586136 5.7170487 1 627
15.457881 23.1510057 16.3428555 1 628
16.3219032 31.7344732 1.2483075 1 629
8.0916243 33.6409416 9.9911442 1 630
16.4471131 25.221274 8.4889946 1 631
1.115818 33.9308567 6.4501453 1 632
6.4454398 27.0671968 0.5649609 1 633
15.1167727 22.7187943 1.6348518 1 634
14.3571177 29.8065653 7.2179155 1 635
10.2743521 31.6956825 17.1187286 1 636
17.2606163 24.9479227 5.1851444 1 637
4.0953507 28.9504709 10.3079329 1 638
16.9888 27.8993568 8.9856912 1 639
10.7788954 32.0031767 4.5053778 1 640
15.915722 32.6194754 13.5500984 1 641
6.2391577 18.578374 3.8926304 1 642
14.4060278 17.377568 8.3092957 1 643
8.906189 28.370739 3.0336301 1 644
5.9818196 18.2530594 8.2261353 1 645
14.2056723 25.1906982 11.2334776 1 646
3.2260871 33.0796242 3.5696907 1 647
12.0623636 34.0416279 16.5732785 1 648
5.4852429 17.5106276 1.403418 1 649
8.5896492 22.9768128 0.0302186 1 650
5.5244532 24.4253053 4.468103 1 651
2.1052055 33.7253055 11.6055737 1 652
15.2528849 28.4831228 17.2351952 1 653
14.8740692 29.8443317 1.9583392 1 654
12.3031168 20.1063058 13.8982248 1 655
8.0348568 20.7005772 12.3258667 1 656
8.7314768 33.694479 7.5776305 1 657
6.2107511 30.108058 16.6724339 1 658
7.239347 31.2539968 8.2774592 1 659
4.7742734 17.8446828 16.2433968 1 660
4.5476079 24.3541908 14.3342781 1 661
10.7805701 23.8350239 7.2293844 1 662
0.229297 25.195099 10.9451714 1 663
17.0817528 17.8410779 16.0754604 1 664
6.3213573 27.1570311 3.3790455 1 665
8.3086195 25.6344576 11.7115536 1 666
7.0775309 19.2859208 17.2476502 1 667
13.7829724 21.299654 15.7620001 1 668
10.6139755 30.9517565 13.4252119 1 669
5.4925957 29.1929626 1.7345832 1 670
10.7843571 29.9870567 1.7971009 1 671
3.4932966 34.3926925 8.2758227 1 672
10.8344937 33.3188458 11.381382 1 673
9.3772307 28.0180368 10.8752442 1 674
0.3681311 21.4912705 2.5382636 1 675
10.6165047 28.8950634 15.2901135 1 676
2.7649193 22.284679 14.6191778 1 677
1.7612233 19.2564258 12.3794012 1 678
1.6875915 32.0021439 8.9373684 1 679
15.2420178 23.5947609 4.0217581 1 680
5.735795 22.5248289 13.25984 1 681
2.4330147 26.005724 9.1709433 1 682
7.3169499 30.4004717 3.1270952 1 683
14.9097996 30.955925 16.3236408 1 684
16.4471112 18.8767929 6.2624669 1 685
4.1136208 26.8394136 4.9566636 1 686
11.5710917 21.1825276 0.4786168 1 687
6.9656096 33.3343944 15.7108565 1 688
14.3630428 30.3774118 11.9983674 1 689
10.4990025 27.3754511 0.5726007 1 690
16.0365772 25.8911982 13.7853537 1 691
14.7393408 19.9135821 9.22824 1 692
5.9820642 23.7331934 1.2603343 1 693
11.4975853 34.3303928 7.764237 1 694
9.2782002 27.192316 5.122191 1 695
0.7311632 21.4734649 12.4344225 1 696
8.3182449 32.5027828 12.6108341 1 697
6.5305081 21.879859 10.6842203 1 698
1.1902973 23.546268 9.1042986 1 699
10.0263224 27.4224386 13.2992048 1 700
16.2335205 32.6385441 7.831111 1 701
11.5352373 28.7647924 9.4446869 1 702
16.289875 27.3342781 11.6622753 1 703
11.9528122 29.1423988 12.4333334 1 704
1.028963 29.8760138 15.1984587 1 705
14.081193 32.3179456 9.9246388 1 706
15.7261248 28.0403833 3.8814802 1 707
13.2424908 20.0524786 11.7023535 1 708
6.6977339 19.2273812 10.5066576 1 709
6.2680993 26.0224314 13.275938 1 710
8.9493886 20.4803445 3.0954275 1 711
3.656972 19.5760574 3.3247166 1 712
6.1700988 33.8304348 13.1033945 1 713
17.0170078 29.4195232 13.1482401 1 714
0.1183754 29.7989855 4.6751576 1 715
4.8025394 31.8714552 1.6059982 1 716
14.8721524 31.1190863 4.609572 1 717
2.9586378 22.7721863 6.7906533 1 718
10.0858536 21.5938759 9.1888971 1 719
0.6737151 27.181119 15.2102022 1 720
10.6525221 31.2621116 8.035656 1 721
9.1294165 30.9321089 10.2984457 1 722
13.9725666 18.1079084 0.4863057 1 723
9.1574316 20.0218523 0.1977123 1 724
13.5933914 26.4579983 16.6880951 1 725
13.8935146 25.0915532 2.1735368 1 726
17.0206985 17.9580783 13.4176598 1 727
3.2239895 26.7738228 14.9246044 1 728
11.7470198 24.202353 0.481251 1 729
1.6154288 25.9062366 0.8963836 1 730
6.6416054 33.1721154 3.4513688 1 731
11.4729014 20.2602756 3.3088412 1 732
14.9728012 25.4124985 6.238411 1 733
11.881158 31.0924177 10.4762917 1 734
4.217258 25.1213961 16.9152452 1 735
7.4389715 32.0105934 0.92062 1 736
1.4870831 31.4581394 12.7947512 1 737
3.8889216 20.8589764 12.3265381 1 738
3.9178774 29.2420606 15.2630024 1 739
11.4173813 17.7659297 12.9821626 1 740
7.6123991 20.405529 5.2951799 1 741
3.9512434 19.0651493 10.0154915 1 742
4.4899016 31.6986637 8.6851654 1 743
4.5292583 20.0874395 6.5439611 2 744
3.0416873 22.468543 1.0924172 2 745
3.2881057 30.0201139 3.6433847 2 746
4.1329498 32.3290128 15.1007214 2 747
8.8853026 24.274921 14.3406563 2 748
2.0360615 27.7579165 12.2672854 2 749
12.9780998 19.233017 6.2964664 2 750
12.9026242 32.2362184 2.0830557 2 751
5.7913447 26.0467701 7.3017345 2 752
3.3738246 23.7453194 11.1811848 2 753
9.6527968 17.8597934 4.6208487 2 754
0.5436381 17.7553033 9.4744053 2 755
2.9619356 28.6951151 7.179287 2 756
0.573116 28.8858156 1.2878336 2 757
15.867672 20.5286655 13.874465 2 758
13.9334354 28.3111906 14.3684683 2 759
15.9233542 22.3786564 10.4184322 2 760
11.1304522 25.5810871 10.210928 2 761
9.0374355 25.3565235 2.2574794 2 762
7.8076139 30.402399 14.415164 2 763
9.7779417 18.8868021 7.4850288 3 764
4.809371 26.935401 11.110014 3 765
5.7986827 27.398508 15.4974509 3 766
5.8759934 28.9528322 8.3163672 3 767
2.1116207 34.5097084 16.4930477 3 768
6.5735455 24.5020475 27.4199619 1 769
13.044548 25.0581698 22.1907792 1 770
1.7002987 20.4856226 24.3183856 1 771
13.901518 22.6705532 30.4453049 1 772
1.1393789 27.3107204 21.7548571 1 773
5.297585 34.0750809 27.6817007 1 774
8.0843725 23.0296321 26.0478687 1 775
1.7927007 24.6804795 30.7545633 1 776
10.0163469 33.257186 31.8714066 1 777
8.9894314 29.214818 25.4299364 1 778
12.7581663 24.0857835 32.7411098 1 779
4.5089545 18.3600709 29.9429417 1 780
2.8259747 23.9668727 21.7533817 1 781
15.2805996 21.4827623 23.6995563 1 782
3.587162 31.282731 28.8656521 1 783
6.9126102 24.7023167 33.7678032 1 784
15.5862303 34.415884 19.520343 1 785
16.6186524 23.5012464 30.7762432 1 786
16.5140648 19.588716 28.6023931 1 787
10.445489 19.8692443 28.9950943 1 788
8.5268202 18.0599608 19.1155888 1 789
0.7857083 24.260759 19.9340036 1 790
13.0796099 32.4034185 30.1054468 1 791
7.4122133 20.5536923 25.6683254 1 792
2.6159604 21.3324466 21.8256168 1 793
16.5834503 25.6098642 33.9549656 1 794
16.8601532 20.7850666 25.6979122 1 795
0.656367 21.6791324 33.5630112 1 796
7.1694121 18.6057066 31.9603472 1 797
7.8279543 21.1953764 32.4701967 1 798
5.1586976 21.7154879 21.3484964 1 799
12.7092123 29.266675 34.3683395 1 800
10.4906483 18.5717734 32.5946102 1 801
11.5598049 26.6016235 20.8866878 1 802